+ 0.5 2 1 cbr 210 ------- 0 2.0 1.1 0 0
- 0.5 2 1 cbr 210 ------- 0 2.0 1.1 0 0
r 0.502168 2 1 cbr 210 ------- 0 2.0 1.1 0 0
+ 0.50375 2 1 cbr 210 ------- 0 2.0 1.1 1 1
- 0.50375 2 1 cbr 210 ------- 0 2.0 1.1 1 1
r 0.505918 2 1 cbr 210 ------- 0 2.0 1.1 1 1
+ 0.5075 2 1 cbr 210 ------- 0 2.0 1.1 2 2
- 0.5075 2 1 cbr 210 ------- 0 2.0 1.1 2 2
r 0.509668 2 1 cbr 210 ------- 0 2.0 1.1 2 2
+ 0.51125 2 1 cbr 210 ------- 0 2.0 1.1 3 3
- 0.51125 2 1 cbr 210 ------- 0 2.0 1.1 3 3
r 0.513418 2 1 cbr 210 ------- 0 2.0 1.1 3 3
+ 0.515 2 1 cbr 210 ------- 0 2.0 1.1 4 4
- 0.515 2 1 cbr 210 ------- 0 2.0 1.1 4 4
r 0.517168 2 1 cbr 210 ------- 0 2.0 1.1 4 4
+ 0.51875 2 1 cbr 210 ------- 0 2.0 1.1 5 5
- 0.51875 2 1 cbr 210 ------- 0 2.0 1.1 5 5
r 0.520918 2 1 cbr 210 ------- 0 2.0 1.1 5 5
+ 0.5225 2 1 cbr 210 ------- 0 2.0 1.1 6 6
- 0.5225 2 1 cbr 210 ------- 0 2.0 1.1 6 6
r 0.524668 2 1 cbr 210 ------- 0 2.0 1.1 6 6
+ 0.52625 2 1 cbr 210 ------- 0 2.0 1.1 7 7
- 0.52625 2 1 cbr 210 ------- 0 2.0 1.1 7 7
r 0.528418 2 1 cbr 210 ------- 0 2.0 1.1 7 7
+ 0.53 2 1 cbr 210 ------- 0 2.0 1.1 8 8
- 0.53 2 1 cbr 210 ------- 0 2.0 1.1 8 8
r 0.532168 2 1 cbr 210 ------- 0 2.0 1.1 8 8
+ 0.53375 2 1 cbr 210 ------- 0 2.0 1.1 9 9
- 0.53375 2 1 cbr 210 ------- 0 2.0 1.1 9 9
r 0.535918 2 1 cbr 210 ------- 0 2.0 1.1 9 9
+ 0.5375 2 1 cbr 210 ------- 0 2.0 1.1 10 10
- 0.5375 2 1 cbr 210 ------- 0 2.0 1.1 10 10
r 0.539668 2 1 cbr 210 ------- 0 2.0 1.1 10 10
+ 0.54125 2 1 cbr 210 ------- 0 2.0 1.1 11 11
- 0.54125 2 1 cbr 210 ------- 0 2.0 1.1 11 11
r 0.543418 2 1 cbr 210 ------- 0 2.0 1.1 11 11
+ 0.545 2 1 cbr 210 ------- 0 2.0 1.1 12 12
- 0.545 2 1 cbr 210 ------- 0 2.0 1.1 12 12
r 0.547168 2 1 cbr 210 ------- 0 2.0 1.1 12 12
+ 0.54875 2 1 cbr 210 ------- 0 2.0 1.1 13 13
- 0.54875 2 1 cbr 210 ------- 0 2.0 1.1 13 13
r 0.550918 2 1 cbr 210 ------- 0 2.0 1.1 13 13
+ 0.5525 2 1 cbr 210 ------- 0 2.0 1.1 14 14
- 0.5525 2 1 cbr 210 ------- 0 2.0 1.1 14 14
r 0.554668 2 1 cbr 210 ------- 0 2.0 1.1 14 14
+ 0.55625 2 1 cbr 210 ------- 0 2.0 1.1 15 15
- 0.55625 2 1 cbr 210 ------- 0 2.0 1.1 15 15
r 0.558418 2 1 cbr 210 ------- 0 2.0 1.1 15 15
+ 0.56 2 1 cbr 210 ------- 0 2.0 1.1 16 16
- 0.56 2 1 cbr 210 ------- 0 2.0 1.1 16 16
r 0.562168 2 1 cbr 210 ------- 0 2.0 1.1 16 16
+ 0.56375 2 1 cbr 210 ------- 0 2.0 1.1 17 17
- 0.56375 2 1 cbr 210 ------- 0 2.0 1.1 17 17
r 0.565918 2 1 cbr 210 ------- 0 2.0 1.1 17 17
+ 0.5675 2 1 cbr 210 ------- 0 2.0 1.1 18 18
- 0.5675 2 1 cbr 210 ------- 0 2.0 1.1 18 18
r 0.569668 2 1 cbr 210 ------- 0 2.0 1.1 18 18
+ 0.57125 2 1 cbr 210 ------- 0 2.0 1.1 19 19
- 0.57125 2 1 cbr 210 ------- 0 2.0 1.1 19 19
r 0.573418 2 1 cbr 210 ------- 0 2.0 1.1 19 19
+ 0.575 2 1 cbr 210 ------- 0 2.0 1.1 20 20
- 0.575 2 1 cbr 210 ------- 0 2.0 1.1 20 20
r 0.577168 2 1 cbr 210 ------- 0 2.0 1.1 20 20
+ 0.57875 2 1 cbr 210 ------- 0 2.0 1.1 21 21
- 0.57875 2 1 cbr 210 ------- 0 2.0 1.1 21 21
r 0.580918 2 1 cbr 210 ------- 0 2.0 1.1 21 21
+ 0.5825 2 1 cbr 210 ------- 0 2.0 1.1 22 22
- 0.5825 2 1 cbr 210 ------- 0 2.0 1.1 22 22
r 0.584668 2 1 cbr 210 ------- 0 2.0 1.1 22 22
+ 0.58625 2 1 cbr 210 ------- 0 2.0 1.1 23 23
- 0.58625 2 1 cbr 210 ------- 0 2.0 1.1 23 23
r 0.588418 2 1 cbr 210 ------- 0 2.0 1.1 23 23
+ 0.59 2 1 cbr 210 ------- 0 2.0 1.1 24 24
- 0.59 2 1 cbr 210 ------- 0 2.0 1.1 24 24
r 0.592168 2 1 cbr 210 ------- 0 2.0 1.1 24 24
+ 0.59375 2 1 cbr 210 ------- 0 2.0 1.1 25 25
- 0.59375 2 1 cbr 210 ------- 0 2.0 1.1 25 25
r 0.595918 2 1 cbr 210 ------- 0 2.0 1.1 25 25
+ 0.5975 2 1 cbr 210 ------- 0 2.0 1.1 26 26
- 0.5975 2 1 cbr 210 ------- 0 2.0 1.1 26 26
r 0.599668 2 1 cbr 210 ------- 0 2.0 1.1 26 26
+ 0.60125 2 1 cbr 210 ------- 0 2.0 1.1 27 27
- 0.60125 2 1 cbr 210 ------- 0 2.0 1.1 27 27
r 0.603418 2 1 cbr 210 ------- 0 2.0 1.1 27 27
+ 0.605 2 1 cbr 210 ------- 0 2.0 1.1 28 28
- 0.605 2 1 cbr 210 ------- 0 2.0 1.1 28 28
r 0.607168 2 1 cbr 210 ------- 0 2.0 1.1 28 28
+ 0.60875 2 1 cbr 210 ------- 0 2.0 1.1 29 29
- 0.60875 2 1 cbr 210 ------- 0 2.0 1.1 29 29
r 0.610918 2 1 cbr 210 ------- 0 2.0 1.1 29 29
+ 0.6125 2 1 cbr 210 ------- 0 2.0 1.1 30 30
- 0.6125 2 1 cbr 210 ------- 0 2.0 1.1 30 30
r 0.614668 2 1 cbr 210 ------- 0 2.0 1.1 30 30
+ 0.61625 2 1 cbr 210 ------- 0 2.0 1.1 31 31
- 0.61625 2 1 cbr 210 ------- 0 2.0 1.1 31 31
r 0.618418 2 1 cbr 210 ------- 0 2.0 1.1 31 31
+ 0.62 2 1 cbr 210 ------- 0 2.0 1.1 32 32
- 0.62 2 1 cbr 210 ------- 0 2.0 1.1 32 32
r 0.622168 2 1 cbr 210 ------- 0 2.0 1.1 32 32
+ 0.62375 2 1 cbr 210 ------- 0 2.0 1.1 33 33
- 0.62375 2 1 cbr 210 ------- 0 2.0 1.1 33 33
r 0.625918 2 1 cbr 210 ------- 0 2.0 1.1 33 33
+ 0.6275 2 1 cbr 210 ------- 0 2.0 1.1 34 34
- 0.6275 2 1 cbr 210 ------- 0 2.0 1.1 34 34
r 0.629668 2 1 cbr 210 ------- 0 2.0 1.1 34 34
+ 0.63125 2 1 cbr 210 ------- 0 2.0 1.1 35 35
- 0.63125 2 1 cbr 210 ------- 0 2.0 1.1 35 35
r 0.633418 2 1 cbr 210 ------- 0 2.0 1.1 35 35
+ 0.635 2 1 cbr 210 ------- 0 2.0 1.1 36 36
- 0.635 2 1 cbr 210 ------- 0 2.0 1.1 36 36
r 0.637168 2 1 cbr 210 ------- 0 2.0 1.1 36 36
+ 0.63875 2 1 cbr 210 ------- 0 2.0 1.1 37 37
- 0.63875 2 1 cbr 210 ------- 0 2.0 1.1 37 37
r 0.640918 2 1 cbr 210 ------- 0 2.0 1.1 37 37
+ 0.6425 2 1 cbr 210 ------- 0 2.0 1.1 38 38
- 0.6425 2 1 cbr 210 ------- 0 2.0 1.1 38 38
r 0.644668 2 1 cbr 210 ------- 0 2.0 1.1 38 38
+ 0.64625 2 1 cbr 210 ------- 0 2.0 1.1 39 39
- 0.64625 2 1 cbr 210 ------- 0 2.0 1.1 39 39
r 0.648418 2 1 cbr 210 ------- 0 2.0 1.1 39 39
+ 0.65 2 1 cbr 210 ------- 0 2.0 1.1 40 40
- 0.65 2 1 cbr 210 ------- 0 2.0 1.1 40 40
r 0.652168 2 1 cbr 210 ------- 0 2.0 1.1 40 40
+ 0.65375 2 1 cbr 210 ------- 0 2.0 1.1 41 41
- 0.65375 2 1 cbr 210 ------- 0 2.0 1.1 41 41
r 0.655918 2 1 cbr 210 ------- 0 2.0 1.1 41 41
+ 0.6575 2 1 cbr 210 ------- 0 2.0 1.1 42 42
- 0.6575 2 1 cbr 210 ------- 0 2.0 1.1 42 42
r 0.659668 2 1 cbr 210 ------- 0 2.0 1.1 42 42
+ 0.66125 2 1 cbr 210 ------- 0 2.0 1.1 43 43
- 0.66125 2 1 cbr 210 ------- 0 2.0 1.1 43 43
r 0.663418 2 1 cbr 210 ------- 0 2.0 1.1 43 43
+ 0.665 2 1 cbr 210 ------- 0 2.0 1.1 44 44
- 0.665 2 1 cbr 210 ------- 0 2.0 1.1 44 44
r 0.667168 2 1 cbr 210 ------- 0 2.0 1.1 44 44
+ 0.66875 2 1 cbr 210 ------- 0 2.0 1.1 45 45
- 0.66875 2 1 cbr 210 ------- 0 2.0 1.1 45 45
r 0.670918 2 1 cbr 210 ------- 0 2.0 1.1 45 45
+ 0.6725 2 1 cbr 210 ------- 0 2.0 1.1 46 46
- 0.6725 2 1 cbr 210 ------- 0 2.0 1.1 46 46
r 0.674668 2 1 cbr 210 ------- 0 2.0 1.1 46 46
+ 0.67625 2 1 cbr 210 ------- 0 2.0 1.1 47 47
- 0.67625 2 1 cbr 210 ------- 0 2.0 1.1 47 47
r 0.678418 2 1 cbr 210 ------- 0 2.0 1.1 47 47
+ 0.68 2 1 cbr 210 ------- 0 2.0 1.1 48 48
- 0.68 2 1 cbr 210 ------- 0 2.0 1.1 48 48
r 0.682168 2 1 cbr 210 ------- 0 2.0 1.1 48 48
+ 0.68375 2 1 cbr 210 ------- 0 2.0 1.1 49 49
- 0.68375 2 1 cbr 210 ------- 0 2.0 1.1 49 49
r 0.685918 2 1 cbr 210 ------- 0 2.0 1.1 49 49
+ 0.6875 2 1 cbr 210 ------- 0 2.0 1.1 50 50
- 0.6875 2 1 cbr 210 ------- 0 2.0 1.1 50 50
r 0.689668 2 1 cbr 210 ------- 0 2.0 1.1 50 50
+ 0.69125 2 1 cbr 210 ------- 0 2.0 1.1 51 51
- 0.69125 2 1 cbr 210 ------- 0 2.0 1.1 51 51
r 0.693418 2 1 cbr 210 ------- 0 2.0 1.1 51 51
+ 0.695 2 1 cbr 210 ------- 0 2.0 1.1 52 52
- 0.695 2 1 cbr 210 ------- 0 2.0 1.1 52 52
r 0.697168 2 1 cbr 210 ------- 0 2.0 1.1 52 52
+ 0.69875 2 1 cbr 210 ------- 0 2.0 1.1 53 53
- 0.69875 2 1 cbr 210 ------- 0 2.0 1.1 53 53
r 0.700918 2 1 cbr 210 ------- 0 2.0 1.1 53 53
+ 0.7025 2 1 cbr 210 ------- 0 2.0 1.1 54 54
- 0.7025 2 1 cbr 210 ------- 0 2.0 1.1 54 54
r 0.704668 2 1 cbr 210 ------- 0 2.0 1.1 54 54
+ 0.70625 2 1 cbr 210 ------- 0 2.0 1.1 55 55
- 0.70625 2 1 cbr 210 ------- 0 2.0 1.1 55 55
r 0.708418 2 1 cbr 210 ------- 0 2.0 1.1 55 55
+ 0.71 2 1 cbr 210 ------- 0 2.0 1.1 56 56
- 0.71 2 1 cbr 210 ------- 0 2.0 1.1 56 56
r 0.712168 2 1 cbr 210 ------- 0 2.0 1.1 56 56
+ 0.71375 2 1 cbr 210 ------- 0 2.0 1.1 57 57
- 0.71375 2 1 cbr 210 ------- 0 2.0 1.1 57 57
r 0.715918 2 1 cbr 210 ------- 0 2.0 1.1 57 57
+ 0.7175 2 1 cbr 210 ------- 0 2.0 1.1 58 58
- 0.7175 2 1 cbr 210 ------- 0 2.0 1.1 58 58
r 0.719668 2 1 cbr 210 ------- 0 2.0 1.1 58 58
+ 0.72125 2 1 cbr 210 ------- 0 2.0 1.1 59 59
- 0.72125 2 1 cbr 210 ------- 0 2.0 1.1 59 59
r 0.723418 2 1 cbr 210 ------- 0 2.0 1.1 59 59
+ 0.725 2 1 cbr 210 ------- 0 2.0 1.1 60 60
- 0.725 2 1 cbr 210 ------- 0 2.0 1.1 60 60
r 0.727168 2 1 cbr 210 ------- 0 2.0 1.1 60 60
+ 0.72875 2 1 cbr 210 ------- 0 2.0 1.1 61 61
- 0.72875 2 1 cbr 210 ------- 0 2.0 1.1 61 61
r 0.730918 2 1 cbr 210 ------- 0 2.0 1.1 61 61
+ 0.7325 2 1 cbr 210 ------- 0 2.0 1.1 62 62
- 0.7325 2 1 cbr 210 ------- 0 2.0 1.1 62 62
r 0.734668 2 1 cbr 210 ------- 0 2.0 1.1 62 62
+ 0.73625 2 1 cbr 210 ------- 0 2.0 1.1 63 63
- 0.73625 2 1 cbr 210 ------- 0 2.0 1.1 63 63
r 0.738418 2 1 cbr 210 ------- 0 2.0 1.1 63 63
+ 0.74 2 1 cbr 210 ------- 0 2.0 1.1 64 64
- 0.74 2 1 cbr 210 ------- 0 2.0 1.1 64 64
r 0.742168 2 1 cbr 210 ------- 0 2.0 1.1 64 64
+ 0.74375 2 1 cbr 210 ------- 0 2.0 1.1 65 65
- 0.74375 2 1 cbr 210 ------- 0 2.0 1.1 65 65
r 0.745918 2 1 cbr 210 ------- 0 2.0 1.1 65 65
+ 0.7475 2 1 cbr 210 ------- 0 2.0 1.1 66 66
- 0.7475 2 1 cbr 210 ------- 0 2.0 1.1 66 66
r 0.749668 2 1 cbr 210 ------- 0 2.0 1.1 66 66
+ 0.75125 2 1 cbr 210 ------- 0 2.0 1.1 67 67
- 0.75125 2 1 cbr 210 ------- 0 2.0 1.1 67 67
r 0.753418 2 1 cbr 210 ------- 0 2.0 1.1 67 67
+ 0.755 2 1 cbr 210 ------- 0 2.0 1.1 68 68
- 0.755 2 1 cbr 210 ------- 0 2.0 1.1 68 68
r 0.757168 2 1 cbr 210 ------- 0 2.0 1.1 68 68
+ 0.75875 2 1 cbr 210 ------- 0 2.0 1.1 69 69
- 0.75875 2 1 cbr 210 ------- 0 2.0 1.1 69 69
r 0.760918 2 1 cbr 210 ------- 0 2.0 1.1 69 69
+ 0.7625 2 1 cbr 210 ------- 0 2.0 1.1 70 70
- 0.7625 2 1 cbr 210 ------- 0 2.0 1.1 70 70
r 0.764668 2 1 cbr 210 ------- 0 2.0 1.1 70 70
+ 0.76625 2 1 cbr 210 ------- 0 2.0 1.1 71 71
- 0.76625 2 1 cbr 210 ------- 0 2.0 1.1 71 71
r 0.768418 2 1 cbr 210 ------- 0 2.0 1.1 71 71
+ 0.77 2 1 cbr 210 ------- 0 2.0 1.1 72 72
- 0.77 2 1 cbr 210 ------- 0 2.0 1.1 72 72
r 0.772168 2 1 cbr 210 ------- 0 2.0 1.1 72 72
+ 0.77375 2 1 cbr 210 ------- 0 2.0 1.1 73 73
- 0.77375 2 1 cbr 210 ------- 0 2.0 1.1 73 73
r 0.775918 2 1 cbr 210 ------- 0 2.0 1.1 73 73
+ 0.7775 2 1 cbr 210 ------- 0 2.0 1.1 74 74
- 0.7775 2 1 cbr 210 ------- 0 2.0 1.1 74 74
r 0.779668 2 1 cbr 210 ------- 0 2.0 1.1 74 74
+ 0.78125 2 1 cbr 210 ------- 0 2.0 1.1 75 75
- 0.78125 2 1 cbr 210 ------- 0 2.0 1.1 75 75
r 0.783418 2 1 cbr 210 ------- 0 2.0 1.1 75 75
+ 0.785 2 1 cbr 210 ------- 0 2.0 1.1 76 76
- 0.785 2 1 cbr 210 ------- 0 2.0 1.1 76 76
r 0.787168 2 1 cbr 210 ------- 0 2.0 1.1 76 76
+ 0.78875 2 1 cbr 210 ------- 0 2.0 1.1 77 77
- 0.78875 2 1 cbr 210 ------- 0 2.0 1.1 77 77
r 0.790918 2 1 cbr 210 ------- 0 2.0 1.1 77 77
+ 0.7925 2 1 cbr 210 ------- 0 2.0 1.1 78 78
- 0.7925 2 1 cbr 210 ------- 0 2.0 1.1 78 78
r 0.794668 2 1 cbr 210 ------- 0 2.0 1.1 78 78
+ 0.79625 2 1 cbr 210 ------- 0 2.0 1.1 79 79
- 0.79625 2 1 cbr 210 ------- 0 2.0 1.1 79 79
r 0.798418 2 1 cbr 210 ------- 0 2.0 1.1 79 79
+ 0.8 2 1 cbr 210 ------- 0 2.0 1.1 80 80
- 0.8 2 1 cbr 210 ------- 0 2.0 1.1 80 80
r 0.802168 2 1 cbr 210 ------- 0 2.0 1.1 80 80
+ 0.80375 2 1 cbr 210 ------- 0 2.0 1.1 81 81
- 0.80375 2 1 cbr 210 ------- 0 2.0 1.1 81 81
r 0.805918 2 1 cbr 210 ------- 0 2.0 1.1 81 81
+ 0.8075 2 1 cbr 210 ------- 0 2.0 1.1 82 82
- 0.8075 2 1 cbr 210 ------- 0 2.0 1.1 82 82
r 0.809668 2 1 cbr 210 ------- 0 2.0 1.1 82 82
+ 0.81125 2 1 cbr 210 ------- 0 2.0 1.1 83 83
- 0.81125 2 1 cbr 210 ------- 0 2.0 1.1 83 83
r 0.813418 2 1 cbr 210 ------- 0 2.0 1.1 83 83
+ 0.815 2 1 cbr 210 ------- 0 2.0 1.1 84 84
- 0.815 2 1 cbr 210 ------- 0 2.0 1.1 84 84
r 0.817168 2 1 cbr 210 ------- 0 2.0 1.1 84 84
+ 0.81875 2 1 cbr 210 ------- 0 2.0 1.1 85 85
- 0.81875 2 1 cbr 210 ------- 0 2.0 1.1 85 85
r 0.820918 2 1 cbr 210 ------- 0 2.0 1.1 85 85
+ 0.8225 2 1 cbr 210 ------- 0 2.0 1.1 86 86
- 0.8225 2 1 cbr 210 ------- 0 2.0 1.1 86 86
r 0.824668 2 1 cbr 210 ------- 0 2.0 1.1 86 86
+ 0.82625 2 1 cbr 210 ------- 0 2.0 1.1 87 87
- 0.82625 2 1 cbr 210 ------- 0 2.0 1.1 87 87
r 0.828418 2 1 cbr 210 ------- 0 2.0 1.1 87 87
+ 0.83 2 1 cbr 210 ------- 0 2.0 1.1 88 88
- 0.83 2 1 cbr 210 ------- 0 2.0 1.1 88 88
r 0.832168 2 1 cbr 210 ------- 0 2.0 1.1 88 88
+ 0.83375 2 1 cbr 210 ------- 0 2.0 1.1 89 89
- 0.83375 2 1 cbr 210 ------- 0 2.0 1.1 89 89
r 0.835918 2 1 cbr 210 ------- 0 2.0 1.1 89 89
+ 0.8375 2 1 cbr 210 ------- 0 2.0 1.1 90 90
- 0.8375 2 1 cbr 210 ------- 0 2.0 1.1 90 90
r 0.839668 2 1 cbr 210 ------- 0 2.0 1.1 90 90
+ 0.84125 2 1 cbr 210 ------- 0 2.0 1.1 91 91
- 0.84125 2 1 cbr 210 ------- 0 2.0 1.1 91 91
r 0.843418 2 1 cbr 210 ------- 0 2.0 1.1 91 91
+ 0.845 2 1 cbr 210 ------- 0 2.0 1.1 92 92
- 0.845 2 1 cbr 210 ------- 0 2.0 1.1 92 92
r 0.847168 2 1 cbr 210 ------- 0 2.0 1.1 92 92
+ 0.84875 2 1 cbr 210 ------- 0 2.0 1.1 93 93
- 0.84875 2 1 cbr 210 ------- 0 2.0 1.1 93 93
r 0.850918 2 1 cbr 210 ------- 0 2.0 1.1 93 93
+ 0.8525 2 1 cbr 210 ------- 0 2.0 1.1 94 94
- 0.8525 2 1 cbr 210 ------- 0 2.0 1.1 94 94
r 0.854668 2 1 cbr 210 ------- 0 2.0 1.1 94 94
+ 0.85625 2 1 cbr 210 ------- 0 2.0 1.1 95 95
- 0.85625 2 1 cbr 210 ------- 0 2.0 1.1 95 95
r 0.858418 2 1 cbr 210 ------- 0 2.0 1.1 95 95
+ 0.86 2 1 cbr 210 ------- 0 2.0 1.1 96 96
- 0.86 2 1 cbr 210 ------- 0 2.0 1.1 96 96
r 0.862168 2 1 cbr 210 ------- 0 2.0 1.1 96 96
+ 0.86375 2 1 cbr 210 ------- 0 2.0 1.1 97 97
- 0.86375 2 1 cbr 210 ------- 0 2.0 1.1 97 97
r 0.865918 2 1 cbr 210 ------- 0 2.0 1.1 97 97
+ 0.8675 2 1 cbr 210 ------- 0 2.0 1.1 98 98
- 0.8675 2 1 cbr 210 ------- 0 2.0 1.1 98 98
r 0.869668 2 1 cbr 210 ------- 0 2.0 1.1 98 98
+ 0.87125 2 1 cbr 210 ------- 0 2.0 1.1 99 99
- 0.87125 2 1 cbr 210 ------- 0 2.0 1.1 99 99
r 0.873418 2 1 cbr 210 ------- 0 2.0 1.1 99 99
+ 0.875 2 1 cbr 210 ------- 0 2.0 1.1 100 100
- 0.875 2 1 cbr 210 ------- 0 2.0 1.1 100 100
r 0.877168 2 1 cbr 210 ------- 0 2.0 1.1 100 100
+ 0.87875 2 1 cbr 210 ------- 0 2.0 1.1 101 101
- 0.87875 2 1 cbr 210 ------- 0 2.0 1.1 101 101
r 0.880918 2 1 cbr 210 ------- 0 2.0 1.1 101 101
+ 0.8825 2 1 cbr 210 ------- 0 2.0 1.1 102 102
- 0.8825 2 1 cbr 210 ------- 0 2.0 1.1 102 102
r 0.884668 2 1 cbr 210 ------- 0 2.0 1.1 102 102
+ 0.88625 2 1 cbr 210 ------- 0 2.0 1.1 103 103
- 0.88625 2 1 cbr 210 ------- 0 2.0 1.1 103 103
r 0.888418 2 1 cbr 210 ------- 0 2.0 1.1 103 103
+ 0.89 2 1 cbr 210 ------- 0 2.0 1.1 104 104
- 0.89 2 1 cbr 210 ------- 0 2.0 1.1 104 104
r 0.892168 2 1 cbr 210 ------- 0 2.0 1.1 104 104
+ 0.89375 2 1 cbr 210 ------- 0 2.0 1.1 105 105
- 0.89375 2 1 cbr 210 ------- 0 2.0 1.1 105 105
r 0.895918 2 1 cbr 210 ------- 0 2.0 1.1 105 105
+ 0.8975 2 1 cbr 210 ------- 0 2.0 1.1 106 106
- 0.8975 2 1 cbr 210 ------- 0 2.0 1.1 106 106
r 0.899668 2 1 cbr 210 ------- 0 2.0 1.1 106 106
+ 0.90125 2 1 cbr 210 ------- 0 2.0 1.1 107 107
- 0.90125 2 1 cbr 210 ------- 0 2.0 1.1 107 107
r 0.903418 2 1 cbr 210 ------- 0 2.0 1.1 107 107
+ 0.905 2 1 cbr 210 ------- 0 2.0 1.1 108 108
- 0.905 2 1 cbr 210 ------- 0 2.0 1.1 108 108
r 0.907168 2 1 cbr 210 ------- 0 2.0 1.1 108 108
+ 0.90875 2 1 cbr 210 ------- 0 2.0 1.1 109 109
- 0.90875 2 1 cbr 210 ------- 0 2.0 1.1 109 109
r 0.910918 2 1 cbr 210 ------- 0 2.0 1.1 109 109
+ 0.9125 2 1 cbr 210 ------- 0 2.0 1.1 110 110
- 0.9125 2 1 cbr 210 ------- 0 2.0 1.1 110 110
r 0.914668 2 1 cbr 210 ------- 0 2.0 1.1 110 110
+ 0.91625 2 1 cbr 210 ------- 0 2.0 1.1 111 111
- 0.91625 2 1 cbr 210 ------- 0 2.0 1.1 111 111
r 0.918418 2 1 cbr 210 ------- 0 2.0 1.1 111 111
+ 0.92 2 1 cbr 210 ------- 0 2.0 1.1 112 112
- 0.92 2 1 cbr 210 ------- 0 2.0 1.1 112 112
r 0.922168 2 1 cbr 210 ------- 0 2.0 1.1 112 112
+ 0.92375 2 1 cbr 210 ------- 0 2.0 1.1 113 113
- 0.92375 2 1 cbr 210 ------- 0 2.0 1.1 113 113
r 0.925918 2 1 cbr 210 ------- 0 2.0 1.1 113 113
+ 0.9275 2 1 cbr 210 ------- 0 2.0 1.1 114 114
- 0.9275 2 1 cbr 210 ------- 0 2.0 1.1 114 114
r 0.929668 2 1 cbr 210 ------- 0 2.0 1.1 114 114
+ 0.93125 2 1 cbr 210 ------- 0 2.0 1.1 115 115
- 0.93125 2 1 cbr 210 ------- 0 2.0 1.1 115 115
r 0.933418 2 1 cbr 210 ------- 0 2.0 1.1 115 115
+ 0.935 2 1 cbr 210 ------- 0 2.0 1.1 116 116
- 0.935 2 1 cbr 210 ------- 0 2.0 1.1 116 116
r 0.937168 2 1 cbr 210 ------- 0 2.0 1.1 116 116
+ 0.93875 2 1 cbr 210 ------- 0 2.0 1.1 117 117
- 0.93875 2 1 cbr 210 ------- 0 2.0 1.1 117 117
r 0.940918 2 1 cbr 210 ------- 0 2.0 1.1 117 117
+ 0.9425 2 1 cbr 210 ------- 0 2.0 1.1 118 118
- 0.9425 2 1 cbr 210 ------- 0 2.0 1.1 118 118
r 0.944668 2 1 cbr 210 ------- 0 2.0 1.1 118 118
+ 0.94625 2 1 cbr 210 ------- 0 2.0 1.1 119 119
- 0.94625 2 1 cbr 210 ------- 0 2.0 1.1 119 119
r 0.948418 2 1 cbr 210 ------- 0 2.0 1.1 119 119
+ 0.95 2 1 cbr 210 ------- 0 2.0 1.1 120 120
- 0.95 2 1 cbr 210 ------- 0 2.0 1.1 120 120
r 0.952168 2 1 cbr 210 ------- 0 2.0 1.1 120 120
+ 0.95375 2 1 cbr 210 ------- 0 2.0 1.1 121 121
- 0.95375 2 1 cbr 210 ------- 0 2.0 1.1 121 121
r 0.955918 2 1 cbr 210 ------- 0 2.0 1.1 121 121
+ 0.9575 2 1 cbr 210 ------- 0 2.0 1.1 122 122
- 0.9575 2 1 cbr 210 ------- 0 2.0 1.1 122 122
r 0.959668 2 1 cbr 210 ------- 0 2.0 1.1 122 122
+ 0.96125 2 1 cbr 210 ------- 0 2.0 1.1 123 123
- 0.96125 2 1 cbr 210 ------- 0 2.0 1.1 123 123
r 0.963418 2 1 cbr 210 ------- 0 2.0 1.1 123 123
+ 0.965 2 1 cbr 210 ------- 0 2.0 1.1 124 124
- 0.965 2 1 cbr 210 ------- 0 2.0 1.1 124 124
r 0.967168 2 1 cbr 210 ------- 0 2.0 1.1 124 124
+ 0.96875 2 1 cbr 210 ------- 0 2.0 1.1 125 125
- 0.96875 2 1 cbr 210 ------- 0 2.0 1.1 125 125
r 0.970918 2 1 cbr 210 ------- 0 2.0 1.1 125 125
+ 0.9725 2 1 cbr 210 ------- 0 2.0 1.1 126 126
- 0.9725 2 1 cbr 210 ------- 0 2.0 1.1 126 126
r 0.974668 2 1 cbr 210 ------- 0 2.0 1.1 126 126
+ 0.97625 2 1 cbr 210 ------- 0 2.0 1.1 127 127
- 0.97625 2 1 cbr 210 ------- 0 2.0 1.1 127 127
r 0.978418 2 1 cbr 210 ------- 0 2.0 1.1 127 127
+ 0.98 2 1 cbr 210 ------- 0 2.0 1.1 128 128
- 0.98 2 1 cbr 210 ------- 0 2.0 1.1 128 128
r 0.982168 2 1 cbr 210 ------- 0 2.0 1.1 128 128
+ 0.98375 2 1 cbr 210 ------- 0 2.0 1.1 129 129
- 0.98375 2 1 cbr 210 ------- 0 2.0 1.1 129 129
r 0.985918 2 1 cbr 210 ------- 0 2.0 1.1 129 129
+ 0.9875 2 1 cbr 210 ------- 0 2.0 1.1 130 130
- 0.9875 2 1 cbr 210 ------- 0 2.0 1.1 130 130
r 0.989668 2 1 cbr 210 ------- 0 2.0 1.1 130 130
+ 0.99125 2 1 cbr 210 ------- 0 2.0 1.1 131 131
- 0.99125 2 1 cbr 210 ------- 0 2.0 1.1 131 131
r 0.993418 2 1 cbr 210 ------- 0 2.0 1.1 131 131
+ 0.995 2 1 cbr 210 ------- 0 2.0 1.1 132 132
- 0.995 2 1 cbr 210 ------- 0 2.0 1.1 132 132
r 0.997168 2 1 cbr 210 ------- 0 2.0 1.1 132 132
+ 0.99875 2 1 cbr 210 ------- 0 2.0 1.1 133 133
- 0.99875 2 1 cbr 210 ------- 0 2.0 1.1 133 133
+ 1 0 1 tcp 40 ------- 0 0.0 1.0 0 134
- 1 0 1 tcp 40 ------- 0 0.0 1.0 0 134
r 1.000918 2 1 cbr 210 ------- 0 2.0 1.1 133 133
r 1.002032 0 1 tcp 40 ------- 0 0.0 1.0 0 134
+ 1.002032 1 0 ack 40 ------- 0 1.0 0.0 0 135
- 1.002032 1 0 ack 40 ------- 0 1.0 0.0 0 135
+ 1.0025 2 1 cbr 210 ------- 0 2.0 1.1 134 136
- 1.0025 2 1 cbr 210 ------- 0 2.0 1.1 134 136
r 1.004064 1 0 ack 40 ------- 0 1.0 0.0 0 135
+ 1.004064 0 1 tcp 1040 ------- 0 0.0 1.0 1 137
- 1.004064 0 1 tcp 1040 ------- 0 0.0 1.0 1 137
+ 1.004064 0 1 tcp 1040 ------- 0 0.0 1.0 2 138
r 1.004668 2 1 cbr 210 ------- 0 2.0 1.1 134 136
- 1.004896 0 1 tcp 1040 ------- 0 0.0 1.0 2 138
+ 1.00625 2 1 cbr 210 ------- 0 2.0 1.1 135 139
- 1.00625 2 1 cbr 210 ------- 0 2.0 1.1 135 139
r 1.006896 0 1 tcp 1040 ------- 0 0.0 1.0 1 137
+ 1.006896 1 0 ack 40 ------- 0 1.0 0.0 1 140
- 1.006896 1 0 ack 40 ------- 0 1.0 0.0 1 140
r 1.007728 0 1 tcp 1040 ------- 0 0.0 1.0 2 138
+ 1.007728 1 0 ack 40 ------- 0 1.0 0.0 2 141
- 1.007728 1 0 ack 40 ------- 0 1.0 0.0 2 141
r 1.008418 2 1 cbr 210 ------- 0 2.0 1.1 135 139
r 1.008928 1 0 ack 40 ------- 0 1.0 0.0 1 140
+ 1.008928 0 1 tcp 1040 ------- 0 0.0 1.0 3 142
- 1.008928 0 1 tcp 1040 ------- 0 0.0 1.0 3 142
+ 1.008928 0 1 tcp 1040 ------- 0 0.0 1.0 4 143
r 1.00976 1 0 ack 40 ------- 0 1.0 0.0 2 141
+ 1.00976 0 1 tcp 1040 ------- 0 0.0 1.0 5 144
+ 1.00976 0 1 tcp 1040 ------- 0 0.0 1.0 6 145
- 1.00976 0 1 tcp 1040 ------- 0 0.0 1.0 4 143
+ 1.01 2 1 cbr 210 ------- 0 2.0 1.1 136 146
- 1.01 2 1 cbr 210 ------- 0 2.0 1.1 136 146
- 1.010592 0 1 tcp 1040 ------- 0 0.0 1.0 5 144
- 1.011424 0 1 tcp 1040 ------- 0 0.0 1.0 6 145
r 1.01176 0 1 tcp 1040 ------- 0 0.0 1.0 3 142
+ 1.01176 1 0 ack 40 ------- 0 1.0 0.0 3 147
- 1.01176 1 0 ack 40 ------- 0 1.0 0.0 3 147
r 1.012168 2 1 cbr 210 ------- 0 2.0 1.1 136 146
r 1.012592 0 1 tcp 1040 ------- 0 0.0 1.0 4 143
+ 1.012592 1 0 ack 40 ------- 0 1.0 0.0 4 148
- 1.012592 1 0 ack 40 ------- 0 1.0 0.0 4 148
r 1.013424 0 1 tcp 1040 ------- 0 0.0 1.0 5 144
+ 1.013424 1 0 ack 40 ------- 0 1.0 0.0 5 149
- 1.013424 1 0 ack 40 ------- 0 1.0 0.0 5 149
+ 1.01375 2 1 cbr 210 ------- 0 2.0 1.1 137 150
- 1.01375 2 1 cbr 210 ------- 0 2.0 1.1 137 150
r 1.013792 1 0 ack 40 ------- 0 1.0 0.0 3 147
+ 1.013792 0 1 tcp 1040 ------- 0 0.0 1.0 7 151
- 1.013792 0 1 tcp 1040 ------- 0 0.0 1.0 7 151
+ 1.013792 0 1 tcp 1040 ------- 0 0.0 1.0 8 152
r 1.014256 0 1 tcp 1040 ------- 0 0.0 1.0 6 145
+ 1.014256 1 0 ack 40 ------- 0 1.0 0.0 6 153
- 1.014256 1 0 ack 40 ------- 0 1.0 0.0 6 153
r 1.014624 1 0 ack 40 ------- 0 1.0 0.0 4 148
+ 1.014624 0 1 tcp 1040 ------- 0 0.0 1.0 9 154
+ 1.014624 0 1 tcp 1040 ------- 0 0.0 1.0 10 155
- 1.014624 0 1 tcp 1040 ------- 0 0.0 1.0 8 152
r 1.015456 1 0 ack 40 ------- 0 1.0 0.0 5 149
+ 1.015456 0 1 tcp 1040 ------- 0 0.0 1.0 11 156
+ 1.015456 0 1 tcp 1040 ------- 0 0.0 1.0 12 157
- 1.015456 0 1 tcp 1040 ------- 0 0.0 1.0 9 154
r 1.015918 2 1 cbr 210 ------- 0 2.0 1.1 137 150
r 1.016288 1 0 ack 40 ------- 0 1.0 0.0 6 153
+ 1.016288 0 1 tcp 1040 ------- 0 0.0 1.0 13 158
+ 1.016288 0 1 tcp 1040 ------- 0 0.0 1.0 14 159
- 1.016288 0 1 tcp 1040 ------- 0 0.0 1.0 10 155
r 1.016624 0 1 tcp 1040 ------- 0 0.0 1.0 7 151
+ 1.016624 1 0 ack 40 ------- 0 1.0 0.0 7 160
- 1.016624 1 0 ack 40 ------- 0 1.0 0.0 7 160
- 1.01712 0 1 tcp 1040 ------- 0 0.0 1.0 11 156
r 1.017456 0 1 tcp 1040 ------- 0 0.0 1.0 8 152
+ 1.017456 1 0 ack 40 ------- 0 1.0 0.0 8 161
- 1.017456 1 0 ack 40 ------- 0 1.0 0.0 8 161
+ 1.0175 2 1 cbr 210 ------- 0 2.0 1.1 138 162
- 1.0175 2 1 cbr 210 ------- 0 2.0 1.1 138 162
- 1.017952 0 1 tcp 1040 ------- 0 0.0 1.0 12 157
r 1.018288 0 1 tcp 1040 ------- 0 0.0 1.0 9 154
+ 1.018288 1 0 ack 40 ------- 0 1.0 0.0 9 163
- 1.018288 1 0 ack 40 ------- 0 1.0 0.0 9 163
r 1.018656 1 0 ack 40 ------- 0 1.0 0.0 7 160
+ 1.018656 0 1 tcp 1040 ------- 0 0.0 1.0 15 164
+ 1.018656 0 1 tcp 1040 ------- 0 0.0 1.0 16 165
- 1.018784 0 1 tcp 1040 ------- 0 0.0 1.0 13 158
r 1.01912 0 1 tcp 1040 ------- 0 0.0 1.0 10 155
+ 1.01912 1 0 ack 40 ------- 0 1.0 0.0 10 166
- 1.01912 1 0 ack 40 ------- 0 1.0 0.0 10 166
r 1.019488 1 0 ack 40 ------- 0 1.0 0.0 8 161
+ 1.019488 0 1 tcp 1040 ------- 0 0.0 1.0 17 167
+ 1.019488 0 1 tcp 1040 ------- 0 0.0 1.0 18 168
- 1.019616 0 1 tcp 1040 ------- 0 0.0 1.0 14 159
r 1.019668 2 1 cbr 210 ------- 0 2.0 1.1 138 162
r 1.019952 0 1 tcp 1040 ------- 0 0.0 1.0 11 156
+ 1.019952 1 0 ack 40 ------- 0 1.0 0.0 11 169
- 1.019952 1 0 ack 40 ------- 0 1.0 0.0 11 169
r 1.02032 1 0 ack 40 ------- 0 1.0 0.0 9 163
+ 1.02032 0 1 tcp 1040 ------- 0 0.0 1.0 19 170
+ 1.02032 0 1 tcp 1040 ------- 0 0.0 1.0 20 171
- 1.020448 0 1 tcp 1040 ------- 0 0.0 1.0 15 164
r 1.020784 0 1 tcp 1040 ------- 0 0.0 1.0 12 157
+ 1.020784 1 0 ack 40 ------- 0 1.0 0.0 12 172
- 1.020784 1 0 ack 40 ------- 0 1.0 0.0 12 172
r 1.021152 1 0 ack 40 ------- 0 1.0 0.0 10 166
+ 1.021152 0 1 tcp 1040 ------- 0 0.0 1.0 21 173
+ 1.021152 0 1 tcp 1040 ------- 0 0.0 1.0 22 174
+ 1.02125 2 1 cbr 210 ------- 0 2.0 1.1 139 175
- 1.02125 2 1 cbr 210 ------- 0 2.0 1.1 139 175
- 1.02128 0 1 tcp 1040 ------- 0 0.0 1.0 16 165
r 1.021616 0 1 tcp 1040 ------- 0 0.0 1.0 13 158
+ 1.021616 1 0 ack 40 ------- 0 1.0 0.0 13 176
- 1.021616 1 0 ack 40 ------- 0 1.0 0.0 13 176
r 1.021984 1 0 ack 40 ------- 0 1.0 0.0 11 169
+ 1.021984 0 1 tcp 1040 ------- 0 0.0 1.0 23 177
+ 1.021984 0 1 tcp 1040 ------- 0 0.0 1.0 24 178
- 1.022112 0 1 tcp 1040 ------- 0 0.0 1.0 17 167
r 1.022448 0 1 tcp 1040 ------- 0 0.0 1.0 14 159
+ 1.022448 1 0 ack 40 ------- 0 1.0 0.0 14 179
- 1.022448 1 0 ack 40 ------- 0 1.0 0.0 14 179
r 1.022816 1 0 ack 40 ------- 0 1.0 0.0 12 172
+ 1.022816 0 1 tcp 1040 ------- 0 0.0 1.0 25 180
+ 1.022816 0 1 tcp 1040 ------- 0 0.0 1.0 26 181
- 1.022944 0 1 tcp 1040 ------- 0 0.0 1.0 18 168
r 1.02328 0 1 tcp 1040 ------- 0 0.0 1.0 15 164
+ 1.02328 1 0 ack 40 ------- 0 1.0 0.0 15 182
- 1.02328 1 0 ack 40 ------- 0 1.0 0.0 15 182
r 1.023418 2 1 cbr 210 ------- 0 2.0 1.1 139 175
r 1.023648 1 0 ack 40 ------- 0 1.0 0.0 13 176
+ 1.023648 0 1 tcp 1040 ------- 0 0.0 1.0 27 183
+ 1.023648 0 1 tcp 1040 ------- 0 0.0 1.0 28 184
- 1.023776 0 1 tcp 1040 ------- 0 0.0 1.0 19 170
r 1.024112 0 1 tcp 1040 ------- 0 0.0 1.0 16 165
+ 1.024112 1 0 ack 40 ------- 0 1.0 0.0 16 185
- 1.024112 1 0 ack 40 ------- 0 1.0 0.0 16 185
r 1.02448 1 0 ack 40 ------- 0 1.0 0.0 14 179
+ 1.02448 0 1 tcp 1040 ------- 0 0.0 1.0 29 186
+ 1.02448 0 1 tcp 1040 ------- 0 0.0 1.0 30 187
- 1.024608 0 1 tcp 1040 ------- 0 0.0 1.0 20 171
r 1.024944 0 1 tcp 1040 ------- 0 0.0 1.0 17 167
+ 1.024944 1 0 ack 40 ------- 0 1.0 0.0 17 188
- 1.024944 1 0 ack 40 ------- 0 1.0 0.0 17 188
+ 1.025 2 1 cbr 210 ------- 0 2.0 1.1 140 189
- 1.025 2 1 cbr 210 ------- 0 2.0 1.1 140 189
r 1.025312 1 0 ack 40 ------- 0 1.0 0.0 15 182
+ 1.025312 0 1 tcp 1040 ------- 0 0.0 1.0 31 190
+ 1.025312 0 1 tcp 1040 ------- 0 0.0 1.0 32 191
- 1.02544 0 1 tcp 1040 ------- 0 0.0 1.0 21 173
r 1.025776 0 1 tcp 1040 ------- 0 0.0 1.0 18 168
+ 1.025776 1 0 ack 40 ------- 0 1.0 0.0 18 192
- 1.025776 1 0 ack 40 ------- 0 1.0 0.0 18 192
r 1.026144 1 0 ack 40 ------- 0 1.0 0.0 16 185
+ 1.026144 0 1 tcp 1040 ------- 0 0.0 1.0 33 193
+ 1.026144 0 1 tcp 1040 ------- 0 0.0 1.0 34 194
- 1.026272 0 1 tcp 1040 ------- 0 0.0 1.0 22 174
r 1.026608 0 1 tcp 1040 ------- 0 0.0 1.0 19 170
+ 1.026608 1 0 ack 40 ------- 0 1.0 0.0 19 195
- 1.026608 1 0 ack 40 ------- 0 1.0 0.0 19 195
r 1.026976 1 0 ack 40 ------- 0 1.0 0.0 17 188
+ 1.026976 0 1 tcp 1040 ------- 0 0.0 1.0 35 196
+ 1.026976 0 1 tcp 1040 ------- 0 0.0 1.0 36 197
- 1.027104 0 1 tcp 1040 ------- 0 0.0 1.0 23 177
r 1.027168 2 1 cbr 210 ------- 0 2.0 1.1 140 189
r 1.02744 0 1 tcp 1040 ------- 0 0.0 1.0 20 171
+ 1.02744 1 0 ack 40 ------- 0 1.0 0.0 20 198
- 1.02744 1 0 ack 40 ------- 0 1.0 0.0 20 198
r 1.027808 1 0 ack 40 ------- 0 1.0 0.0 18 192
+ 1.027808 0 1 tcp 1040 ------- 0 0.0 1.0 37 199
+ 1.027808 0 1 tcp 1040 ------- 0 0.0 1.0 38 200
- 1.027936 0 1 tcp 1040 ------- 0 0.0 1.0 24 178
r 1.028272 0 1 tcp 1040 ------- 0 0.0 1.0 21 173
+ 1.028272 1 0 ack 40 ------- 0 1.0 0.0 21 201
- 1.028272 1 0 ack 40 ------- 0 1.0 0.0 21 201
r 1.02864 1 0 ack 40 ------- 0 1.0 0.0 19 195
+ 1.02864 0 1 tcp 1040 ------- 0 0.0 1.0 39 202
+ 1.02875 2 1 cbr 210 ------- 0 2.0 1.1 141 203
- 1.02875 2 1 cbr 210 ------- 0 2.0 1.1 141 203
- 1.028768 0 1 tcp 1040 ------- 0 0.0 1.0 25 180
r 1.029104 0 1 tcp 1040 ------- 0 0.0 1.0 22 174
+ 1.029104 1 0 ack 40 ------- 0 1.0 0.0 22 204
- 1.029104 1 0 ack 40 ------- 0 1.0 0.0 22 204
r 1.029472 1 0 ack 40 ------- 0 1.0 0.0 20 198
+ 1.029472 0 1 tcp 1040 ------- 0 0.0 1.0 40 205
- 1.0296 0 1 tcp 1040 ------- 0 0.0 1.0 26 181
r 1.029936 0 1 tcp 1040 ------- 0 0.0 1.0 23 177
+ 1.029936 1 0 ack 40 ------- 0 1.0 0.0 23 206
- 1.029936 1 0 ack 40 ------- 0 1.0 0.0 23 206
r 1.030304 1 0 ack 40 ------- 0 1.0 0.0 21 201
+ 1.030304 0 1 tcp 1040 ------- 0 0.0 1.0 41 207
- 1.030432 0 1 tcp 1040 ------- 0 0.0 1.0 27 183
r 1.030768 0 1 tcp 1040 ------- 0 0.0 1.0 24 178
+ 1.030768 1 0 ack 40 ------- 0 1.0 0.0 24 208
- 1.030768 1 0 ack 40 ------- 0 1.0 0.0 24 208
r 1.030918 2 1 cbr 210 ------- 0 2.0 1.1 141 203
r 1.031136 1 0 ack 40 ------- 0 1.0 0.0 22 204
+ 1.031136 0 1 tcp 1040 ------- 0 0.0 1.0 42 209
- 1.031264 0 1 tcp 1040 ------- 0 0.0 1.0 28 184
r 1.0316 0 1 tcp 1040 ------- 0 0.0 1.0 25 180
+ 1.0316 1 0 ack 40 ------- 0 1.0 0.0 25 210
- 1.0316 1 0 ack 40 ------- 0 1.0 0.0 25 210
r 1.031968 1 0 ack 40 ------- 0 1.0 0.0 23 206
+ 1.031968 0 1 tcp 1040 ------- 0 0.0 1.0 43 211
- 1.032096 0 1 tcp 1040 ------- 0 0.0 1.0 29 186
r 1.032432 0 1 tcp 1040 ------- 0 0.0 1.0 26 181
+ 1.032432 1 0 ack 40 ------- 0 1.0 0.0 26 212
- 1.032432 1 0 ack 40 ------- 0 1.0 0.0 26 212
+ 1.0325 2 1 cbr 210 ------- 0 2.0 1.1 142 213
- 1.0325 2 1 cbr 210 ------- 0 2.0 1.1 142 213
r 1.0328 1 0 ack 40 ------- 0 1.0 0.0 24 208
+ 1.0328 0 1 tcp 1040 ------- 0 0.0 1.0 44 214
- 1.032928 0 1 tcp 1040 ------- 0 0.0 1.0 30 187
r 1.033264 0 1 tcp 1040 ------- 0 0.0 1.0 27 183
+ 1.033264 1 0 ack 40 ------- 0 1.0 0.0 27 215
- 1.033264 1 0 ack 40 ------- 0 1.0 0.0 27 215
r 1.033632 1 0 ack 40 ------- 0 1.0 0.0 25 210
+ 1.033632 0 1 tcp 1040 ------- 0 0.0 1.0 45 216
- 1.03376 0 1 tcp 1040 ------- 0 0.0 1.0 31 190
r 1.034096 0 1 tcp 1040 ------- 0 0.0 1.0 28 184
+ 1.034096 1 0 ack 40 ------- 0 1.0 0.0 28 217
- 1.034096 1 0 ack 40 ------- 0 1.0 0.0 28 217
r 1.034464 1 0 ack 40 ------- 0 1.0 0.0 26 212
+ 1.034464 0 1 tcp 1040 ------- 0 0.0 1.0 46 218
- 1.034592 0 1 tcp 1040 ------- 0 0.0 1.0 32 191
r 1.034668 2 1 cbr 210 ------- 0 2.0 1.1 142 213
r 1.034928 0 1 tcp 1040 ------- 0 0.0 1.0 29 186
+ 1.034928 1 0 ack 40 ------- 0 1.0 0.0 29 219
- 1.034928 1 0 ack 40 ------- 0 1.0 0.0 29 219
r 1.035296 1 0 ack 40 ------- 0 1.0 0.0 27 215
+ 1.035296 0 1 tcp 1040 ------- 0 0.0 1.0 47 220
- 1.035424 0 1 tcp 1040 ------- 0 0.0 1.0 33 193
r 1.03576 0 1 tcp 1040 ------- 0 0.0 1.0 30 187
+ 1.03576 1 0 ack 40 ------- 0 1.0 0.0 30 221
- 1.03576 1 0 ack 40 ------- 0 1.0 0.0 30 221
r 1.036128 1 0 ack 40 ------- 0 1.0 0.0 28 217
+ 1.036128 0 1 tcp 1040 ------- 0 0.0 1.0 48 222
+ 1.03625 2 1 cbr 210 ------- 0 2.0 1.1 143 223
- 1.03625 2 1 cbr 210 ------- 0 2.0 1.1 143 223
- 1.036256 0 1 tcp 1040 ------- 0 0.0 1.0 34 194
r 1.036592 0 1 tcp 1040 ------- 0 0.0 1.0 31 190
+ 1.036592 1 0 ack 40 ------- 0 1.0 0.0 31 224
- 1.036592 1 0 ack 40 ------- 0 1.0 0.0 31 224
r 1.03696 1 0 ack 40 ------- 0 1.0 0.0 29 219
+ 1.03696 0 1 tcp 1040 ------- 0 0.0 1.0 49 225
- 1.037088 0 1 tcp 1040 ------- 0 0.0 1.0 35 196