n -t 0 -s 0 -S DLABEL -l "A" -L ""
n -t 0 -s 1 -S DLABEL -l "B" -L ""
n -t 0 -s 2 -S DLABEL -l "C" -L ""
n -t 0 -s 3 -S DLABEL -l "D" -L ""
V -t * -v 1.0a5 -a 0
A -t * -n 1 -p 0 -o 0x7fffffff -c 30 -a 1
A -t * -h 1 -m 1073741823 -s 0
n -t * -a 0 -s 0 -S UP -v circle -c black -i black
n -t * -a 1 -s 1 -S UP -v circle -c black -i black
n -t * -a 2 -s 2 -S UP -v circle -c black -i black
n -t * -a 3 -s 3 -S UP -v circle -c black -i black
l -t * -s 0 -d 1 -S UP -r 10000000 -D 0.002 -c black
l -t * -s 2 -d 1 -S UP -r 10000000 -D 0.002 -c black
l -t * -s 1 -d 3 -S UP -r 10000000 -D 0.002 -c black
+ -t 0.5 -s 2 -d 1 -p cbr -e 210 -c 0 -i 0 -a 0 -x {2.0 1.1 0 ------- null}
- -t 0.5 -s 2 -d 1 -p cbr -e 210 -c 0 -i 0 -a 0 -x {2.0 1.1 0 ------- null}
h -t 0.5 -s 2 -d 1 -p cbr -e 210 -c 0 -i 0 -a 0 -x {2.0 1.1 -1 ------- null}
r -t 0.502168 -s 2 -d 1 -p cbr -e 210 -c 0 -i 0 -a 0 -x {2.0 1.1 0 ------- null}
+ -t 0.50375 -s 2 -d 1 -p cbr -e 210 -c 0 -i 1 -a 0 -x {2.0 1.1 1 ------- null}
- -t 0.50375 -s 2 -d 1 -p cbr -e 210 -c 0 -i 1 -a 0 -x {2.0 1.1 1 ------- null}
h -t 0.50375 -s 2 -d 1 -p cbr -e 210 -c 0 -i 1 -a 0 -x {2.0 1.1 -1 ------- null}
r -t 0.505918 -s 2 -d 1 -p cbr -e 210 -c 0 -i 1 -a 0 -x {2.0 1.1 1 ------- null}
+ -t 0.5075 -s 2 -d 1 -p cbr -e 210 -c 0 -i 2 -a 0 -x {2.0 1.1 2 ------- null}
- -t 0.5075 -s 2 -d 1 -p cbr -e 210 -c 0 -i 2 -a 0 -x {2.0 1.1 2 ------- null}
h -t 0.5075 -s 2 -d 1 -p cbr -e 210 -c 0 -i 2 -a 0 -x {2.0 1.1 -1 ------- null}
r -t 0.509668 -s 2 -d 1 -p cbr -e 210 -c 0 -i 2 -a 0 -x {2.0 1.1 2 ------- null}
+ -t 0.51125 -s 2 -d 1 -p cbr -e 210 -c 0 -i 3 -a 0 -x {2.0 1.1 3 ------- null}
- -t 0.51125 -s 2 -d 1 -p cbr -e 210 -c 0 -i 3 -a 0 -x {2.0 1.1 3 ------- null}
h -t 0.51125 -s 2 -d 1 -p cbr -e 210 -c 0 -i 3 -a 0 -x {2.0 1.1 -1 ------- null}
r -t 0.513418 -s 2 -d 1 -p cbr -e 210 -c 0 -i 3 -a 0 -x {2.0 1.1 3 ------- null}
+ -t 0.515 -s 2 -d 1 -p cbr -e 210 -c 0 -i 4 -a 0 -x {2.0 1.1 4 ------- null}
- -t 0.515 -s 2 -d 1 -p cbr -e 210 -c 0 -i 4 -a 0 -x {2.0 1.1 4 ------- null}
h -t 0.515 -s 2 -d 1 -p cbr -e 210 -c 0 -i 4 -a 0 -x {2.0 1.1 -1 ------- null}
r -t 0.517168 -s 2 -d 1 -p cbr -e 210 -c 0 -i 4 -a 0 -x {2.0 1.1 4 ------- null}
+ -t 0.51875 -s 2 -d 1 -p cbr -e 210 -c 0 -i 5 -a 0 -x {2.0 1.1 5 ------- null}
- -t 0.51875 -s 2 -d 1 -p cbr -e 210 -c 0 -i 5 -a 0 -x {2.0 1.1 5 ------- null}
h -t 0.51875 -s 2 -d 1 -p cbr -e 210 -c 0 -i 5 -a 0 -x {2.0 1.1 -1 ------- null}
r -t 0.520918 -s 2 -d 1 -p cbr -e 210 -c 0 -i 5 -a 0 -x {2.0 1.1 5 ------- null}
+ -t 0.5225 -s 2 -d 1 -p cbr -e 210 -c 0 -i 6 -a 0 -x {2.0 1.1 6 ------- null}
- -t 0.5225 -s 2 -d 1 -p cbr -e 210 -c 0 -i 6 -a 0 -x {2.0 1.1 6 ------- null}
h -t 0.5225 -s 2 -d 1 -p cbr -e 210 -c 0 -i 6 -a 0 -x {2.0 1.1 -1 ------- null}
r -t 0.524668 -s 2 -d 1 -p cbr -e 210 -c 0 -i 6 -a 0 -x {2.0 1.1 6 ------- null}
+ -t 0.52625 -s 2 -d 1 -p cbr -e 210 -c 0 -i 7 -a 0 -x {2.0 1.1 7 ------- null}
- -t 0.52625 -s 2 -d 1 -p cbr -e 210 -c 0 -i 7 -a 0 -x {2.0 1.1 7 ------- null}
h -t 0.52625 -s 2 -d 1 -p cbr -e 210 -c 0 -i 7 -a 0 -x {2.0 1.1 -1 ------- null}
r -t 0.528418 -s 2 -d 1 -p cbr -e 210 -c 0 -i 7 -a 0 -x {2.0 1.1 7 ------- null}
+ -t 0.53 -s 2 -d 1 -p cbr -e 210 -c 0 -i 8 -a 0 -x {2.0 1.1 8 ------- null}
- -t 0.53 -s 2 -d 1 -p cbr -e 210 -c 0 -i 8 -a 0 -x {2.0 1.1 8 ------- null}
h -t 0.53 -s 2 -d 1 -p cbr -e 210 -c 0 -i 8 -a 0 -x {2.0 1.1 -1 ------- null}
r -t 0.532168 -s 2 -d 1 -p cbr -e 210 -c 0 -i 8 -a 0 -x {2.0 1.1 8 ------- null}
+ -t 0.53375 -s 2 -d 1 -p cbr -e 210 -c 0 -i 9 -a 0 -x {2.0 1.1 9 ------- null}
- -t 0.53375 -s 2 -d 1 -p cbr -e 210 -c 0 -i 9 -a 0 -x {2.0 1.1 9 ------- null}
h -t 0.53375 -s 2 -d 1 -p cbr -e 210 -c 0 -i 9 -a 0 -x {2.0 1.1 -1 ------- null}
r -t 0.535918 -s 2 -d 1 -p cbr -e 210 -c 0 -i 9 -a 0 -x {2.0 1.1 9 ------- null}
+ -t 0.5375 -s 2 -d 1 -p cbr -e 210 -c 0 -i 10 -a 0 -x {2.0 1.1 10 ------- null}
- -t 0.5375 -s 2 -d 1 -p cbr -e 210 -c 0 -i 10 -a 0 -x {2.0 1.1 10 ------- null}
h -t 0.5375 -s 2 -d 1 -p cbr -e 210 -c 0 -i 10 -a 0 -x {2.0 1.1 -1 ------- null}
r -t 0.539668 -s 2 -d 1 -p cbr -e 210 -c 0 -i 10 -a 0 -x {2.0 1.1 10 ------- null}
+ -t 0.54125 -s 2 -d 1 -p cbr -e 210 -c 0 -i 11 -a 0 -x {2.0 1.1 11 ------- null}
- -t 0.54125 -s 2 -d 1 -p cbr -e 210 -c 0 -i 11 -a 0 -x {2.0 1.1 11 ------- null}
h -t 0.54125 -s 2 -d 1 -p cbr -e 210 -c 0 -i 11 -a 0 -x {2.0 1.1 -1 ------- null}
r -t 0.543418 -s 2 -d 1 -p cbr -e 210 -c 0 -i 11 -a 0 -x {2.0 1.1 11 ------- null}
+ -t 0.545 -s 2 -d 1 -p cbr -e 210 -c 0 -i 12 -a 0 -x {2.0 1.1 12 ------- null}
- -t 0.545 -s 2 -d 1 -p cbr -e 210 -c 0 -i 12 -a 0 -x {2.0 1.1 12 ------- null}
h -t 0.545 -s 2 -d 1 -p cbr -e 210 -c 0 -i 12 -a 0 -x {2.0 1.1 -1 ------- null}
r -t 0.547168 -s 2 -d 1 -p cbr -e 210 -c 0 -i 12 -a 0 -x {2.0 1.1 12 ------- null}
+ -t 0.54875 -s 2 -d 1 -p cbr -e 210 -c 0 -i 13 -a 0 -x {2.0 1.1 13 ------- null}
- -t 0.54875 -s 2 -d 1 -p cbr -e 210 -c 0 -i 13 -a 0 -x {2.0 1.1 13 ------- null}
h -t 0.54875 -s 2 -d 1 -p cbr -e 210 -c 0 -i 13 -a 0 -x {2.0 1.1 -1 ------- null}
r -t 0.550918 -s 2 -d 1 -p cbr -e 210 -c 0 -i 13 -a 0 -x {2.0 1.1 13 ------- null}
+ -t 0.5525 -s 2 -d 1 -p cbr -e 210 -c 0 -i 14 -a 0 -x {2.0 1.1 14 ------- null}
- -t 0.5525 -s 2 -d 1 -p cbr -e 210 -c 0 -i 14 -a 0 -x {2.0 1.1 14 ------- null}
h -t 0.5525 -s 2 -d 1 -p cbr -e 210 -c 0 -i 14 -a 0 -x {2.0 1.1 -1 ------- null}
r -t 0.554668 -s 2 -d 1 -p cbr -e 210 -c 0 -i 14 -a 0 -x {2.0 1.1 14 ------- null}
+ -t 0.55625 -s 2 -d 1 -p cbr -e 210 -c 0 -i 15 -a 0 -x {2.0 1.1 15 ------- null}
- -t 0.55625 -s 2 -d 1 -p cbr -e 210 -c 0 -i 15 -a 0 -x {2.0 1.1 15 ------- null}
h -t 0.55625 -s 2 -d 1 -p cbr -e 210 -c 0 -i 15 -a 0 -x {2.0 1.1 -1 ------- null}
r -t 0.558418 -s 2 -d 1 -p cbr -e 210 -c 0 -i 15 -a 0 -x {2.0 1.1 15 ------- null}
+ -t 0.56 -s 2 -d 1 -p cbr -e 210 -c 0 -i 16 -a 0 -x {2.0 1.1 16 ------- null}
- -t 0.56 -s 2 -d 1 -p cbr -e 210 -c 0 -i 16 -a 0 -x {2.0 1.1 16 ------- null}
h -t 0.56 -s 2 -d 1 -p cbr -e 210 -c 0 -i 16 -a 0 -x {2.0 1.1 -1 ------- null}
r -t 0.562168 -s 2 -d 1 -p cbr -e 210 -c 0 -i 16 -a 0 -x {2.0 1.1 16 ------- null}
+ -t 0.563750000000001 -s 2 -d 1 -p cbr -e 210 -c 0 -i 17 -a 0 -x {2.0 1.1 17 ------- null}
- -t 0.563750000000001 -s 2 -d 1 -p cbr -e 210 -c 0 -i 17 -a 0 -x {2.0 1.1 17 ------- null}
h -t 0.563750000000001 -s 2 -d 1 -p cbr -e 210 -c 0 -i 17 -a 0 -x {2.0 1.1 -1 ------- null}
r -t 0.565918 -s 2 -d 1 -p cbr -e 210 -c 0 -i 17 -a 0 -x {2.0 1.1 17 ------- null}
+ -t 0.567500000000001 -s 2 -d 1 -p cbr -e 210 -c 0 -i 18 -a 0 -x {2.0 1.1 18 ------- null}
- -t 0.567500000000001 -s 2 -d 1 -p cbr -e 210 -c 0 -i 18 -a 0 -x {2.0 1.1 18 ------- null}
h -t 0.567500000000001 -s 2 -d 1 -p cbr -e 210 -c 0 -i 18 -a 0 -x {2.0 1.1 -1 ------- null}
r -t 0.569668000000001 -s 2 -d 1 -p cbr -e 210 -c 0 -i 18 -a 0 -x {2.0 1.1 18 ------- null}
+ -t 0.571250000000001 -s 2 -d 1 -p cbr -e 210 -c 0 -i 19 -a 0 -x {2.0 1.1 19 ------- null}
- -t 0.571250000000001 -s 2 -d 1 -p cbr -e 210 -c 0 -i 19 -a 0 -x {2.0 1.1 19 ------- null}
h -t 0.571250000000001 -s 2 -d 1 -p cbr -e 210 -c 0 -i 19 -a 0 -x {2.0 1.1 -1 ------- null}
r -t 0.573418000000001 -s 2 -d 1 -p cbr -e 210 -c 0 -i 19 -a 0 -x {2.0 1.1 19 ------- null}
+ -t 0.575000000000001 -s 2 -d 1 -p cbr -e 210 -c 0 -i 20 -a 0 -x {2.0 1.1 20 ------- null}
- -t 0.575000000000001 -s 2 -d 1 -p cbr -e 210 -c 0 -i 20 -a 0 -x {2.0 1.1 20 ------- null}
h -t 0.575000000000001 -s 2 -d 1 -p cbr -e 210 -c 0 -i 20 -a 0 -x {2.0 1.1 -1 ------- null}
r -t 0.577168000000001 -s 2 -d 1 -p cbr -e 210 -c 0 -i 20 -a 0 -x {2.0 1.1 20 ------- null}
+ -t 0.578750000000001 -s 2 -d 1 -p cbr -e 210 -c 0 -i 21 -a 0 -x {2.0 1.1 21 ------- null}
- -t 0.578750000000001 -s 2 -d 1 -p cbr -e 210 -c 0 -i 21 -a 0 -x {2.0 1.1 21 ------- null}
h -t 0.578750000000001 -s 2 -d 1 -p cbr -e 210 -c 0 -i 21 -a 0 -x {2.0 1.1 -1 ------- null}
r -t 0.580918000000001 -s 2 -d 1 -p cbr -e 210 -c 0 -i 21 -a 0 -x {2.0 1.1 21 ------- null}
+ -t 0.582500000000001 -s 2 -d 1 -p cbr -e 210 -c 0 -i 22 -a 0 -x {2.0 1.1 22 ------- null}
- -t 0.582500000000001 -s 2 -d 1 -p cbr -e 210 -c 0 -i 22 -a 0 -x {2.0 1.1 22 ------- null}
h -t 0.582500000000001 -s 2 -d 1 -p cbr -e 210 -c 0 -i 22 -a 0 -x {2.0 1.1 -1 ------- null}
r -t 0.584668000000001 -s 2 -d 1 -p cbr -e 210 -c 0 -i 22 -a 0 -x {2.0 1.1 22 ------- null}
+ -t 0.586250000000001 -s 2 -d 1 -p cbr -e 210 -c 0 -i 23 -a 0 -x {2.0 1.1 23 ------- null}
- -t 0.586250000000001 -s 2 -d 1 -p cbr -e 210 -c 0 -i 23 -a 0 -x {2.0 1.1 23 ------- null}
h -t 0.586250000000001 -s 2 -d 1 -p cbr -e 210 -c 0 -i 23 -a 0 -x {2.0 1.1 -1 ------- null}
r -t 0.588418000000001 -s 2 -d 1 -p cbr -e 210 -c 0 -i 23 -a 0 -x {2.0 1.1 23 ------- null}
+ -t 0.590000000000001 -s 2 -d 1 -p cbr -e 210 -c 0 -i 24 -a 0 -x {2.0 1.1 24 ------- null}
- -t 0.590000000000001 -s 2 -d 1 -p cbr -e 210 -c 0 -i 24 -a 0 -x {2.0 1.1 24 ------- null}
h -t 0.590000000000001 -s 2 -d 1 -p cbr -e 210 -c 0 -i 24 -a 0 -x {2.0 1.1 -1 ------- null}
r -t 0.592168000000001 -s 2 -d 1 -p cbr -e 210 -c 0 -i 24 -a 0 -x {2.0 1.1 24 ------- null}
+ -t 0.593750000000001 -s 2 -d 1 -p cbr -e 210 -c 0 -i 25 -a 0 -x {2.0 1.1 25 ------- null}
- -t 0.593750000000001 -s 2 -d 1 -p cbr -e 210 -c 0 -i 25 -a 0 -x {2.0 1.1 25 ------- null}
h -t 0.593750000000001 -s 2 -d 1 -p cbr -e 210 -c 0 -i 25 -a 0 -x {2.0 1.1 -1 ------- null}
r -t 0.595918000000001 -s 2 -d 1 -p cbr -e 210 -c 0 -i 25 -a 0 -x {2.0 1.1 25 ------- null}
+ -t 0.597500000000001 -s 2 -d 1 -p cbr -e 210 -c 0 -i 26 -a 0 -x {2.0 1.1 26 ------- null}
- -t 0.597500000000001 -s 2 -d 1 -p cbr -e 210 -c 0 -i 26 -a 0 -x {2.0 1.1 26 ------- null}
h -t 0.597500000000001 -s 2 -d 1 -p cbr -e 210 -c 0 -i 26 -a 0 -x {2.0 1.1 -1 ------- null}
r -t 0.599668000000001 -s 2 -d 1 -p cbr -e 210 -c 0 -i 26 -a 0 -x {2.0 1.1 26 ------- null}
+ -t 0.601250000000001 -s 2 -d 1 -p cbr -e 210 -c 0 -i 27 -a 0 -x {2.0 1.1 27 ------- null}
- -t 0.601250000000001 -s 2 -d 1 -p cbr -e 210 -c 0 -i 27 -a 0 -x {2.0 1.1 27 ------- null}
h -t 0.601250000000001 -s 2 -d 1 -p cbr -e 210 -c 0 -i 27 -a 0 -x {2.0 1.1 -1 ------- null}
r -t 0.603418000000001 -s 2 -d 1 -p cbr -e 210 -c 0 -i 27 -a 0 -x {2.0 1.1 27 ------- null}
+ -t 0.605000000000001 -s 2 -d 1 -p cbr -e 210 -c 0 -i 28 -a 0 -x {2.0 1.1 28 ------- null}
- -t 0.605000000000001 -s 2 -d 1 -p cbr -e 210 -c 0 -i 28 -a 0 -x {2.0 1.1 28 ------- null}
h -t 0.605000000000001 -s 2 -d 1 -p cbr -e 210 -c 0 -i 28 -a 0 -x {2.0 1.1 -1 ------- null}
r -t 0.607168000000001 -s 2 -d 1 -p cbr -e 210 -c 0 -i 28 -a 0 -x {2.0 1.1 28 ------- null}
+ -t 0.608750000000001 -s 2 -d 1 -p cbr -e 210 -c 0 -i 29 -a 0 -x {2.0 1.1 29 ------- null}
- -t 0.608750000000001 -s 2 -d 1 -p cbr -e 210 -c 0 -i 29 -a 0 -x {2.0 1.1 29 ------- null}
h -t 0.608750000000001 -s 2 -d 1 -p cbr -e 210 -c 0 -i 29 -a 0 -x {2.0 1.1 -1 ------- null}
r -t 0.610918000000001 -s 2 -d 1 -p cbr -e 210 -c 0 -i 29 -a 0 -x {2.0 1.1 29 ------- null}
+ -t 0.612500000000001 -s 2 -d 1 -p cbr -e 210 -c 0 -i 30 -a 0 -x {2.0 1.1 30 ------- null}
- -t 0.612500000000001 -s 2 -d 1 -p cbr -e 210 -c 0 -i 30 -a 0 -x {2.0 1.1 30 ------- null}
h -t 0.612500000000001 -s 2 -d 1 -p cbr -e 210 -c 0 -i 30 -a 0 -x {2.0 1.1 -1 ------- null}
r -t 0.614668000000001 -s 2 -d 1 -p cbr -e 210 -c 0 -i 30 -a 0 -x {2.0 1.1 30 ------- null}
+ -t 0.616250000000001 -s 2 -d 1 -p cbr -e 210 -c 0 -i 31 -a 0 -x {2.0 1.1 31 ------- null}
- -t 0.616250000000001 -s 2 -d 1 -p cbr -e 210 -c 0 -i 31 -a 0 -x {2.0 1.1 31 ------- null}
h -t 0.616250000000001 -s 2 -d 1 -p cbr -e 210 -c 0 -i 31 -a 0 -x {2.0 1.1 -1 ------- null}
r -t 0.618418000000001 -s 2 -d 1 -p cbr -e 210 -c 0 -i 31 -a 0 -x {2.0 1.1 31 ------- null}
+ -t 0.620000000000001 -s 2 -d 1 -p cbr -e 210 -c 0 -i 32 -a 0 -x {2.0 1.1 32 ------- null}
- -t 0.620000000000001 -s 2 -d 1 -p cbr -e 210 -c 0 -i 32 -a 0 -x {2.0 1.1 32 ------- null}
h -t 0.620000000000001 -s 2 -d 1 -p cbr -e 210 -c 0 -i 32 -a 0 -x {2.0 1.1 -1 ------- null}
r -t 0.622168000000001 -s 2 -d 1 -p cbr -e 210 -c 0 -i 32 -a 0 -x {2.0 1.1 32 ------- null}
+ -t 0.623750000000001 -s 2 -d 1 -p cbr -e 210 -c 0 -i 33 -a 0 -x {2.0 1.1 33 ------- null}
- -t 0.623750000000001 -s 2 -d 1 -p cbr -e 210 -c 0 -i 33 -a 0 -x {2.0 1.1 33 ------- null}
h -t 0.623750000000001 -s 2 -d 1 -p cbr -e 210 -c 0 -i 33 -a 0 -x {2.0 1.1 -1 ------- null}
r -t 0.625918000000001 -s 2 -d 1 -p cbr -e 210 -c 0 -i 33 -a 0 -x {2.0 1.1 33 ------- null}
+ -t 0.627500000000001 -s 2 -d 1 -p cbr -e 210 -c 0 -i 34 -a 0 -x {2.0 1.1 34 ------- null}
- -t 0.627500000000001 -s 2 -d 1 -p cbr -e 210 -c 0 -i 34 -a 0 -x {2.0 1.1 34 ------- null}
h -t 0.627500000000001 -s 2 -d 1 -p cbr -e 210 -c 0 -i 34 -a 0 -x {2.0 1.1 -1 ------- null}
r -t 0.629668000000001 -s 2 -d 1 -p cbr -e 210 -c 0 -i 34 -a 0 -x {2.0 1.1 34 ------- null}
+ -t 0.631250000000001 -s 2 -d 1 -p cbr -e 210 -c 0 -i 35 -a 0 -x {2.0 1.1 35 ------- null}
- -t 0.631250000000001 -s 2 -d 1 -p cbr -e 210 -c 0 -i 35 -a 0 -x {2.0 1.1 35 ------- null}
h -t 0.631250000000001 -s 2 -d 1 -p cbr -e 210 -c 0 -i 35 -a 0 -x {2.0 1.1 -1 ------- null}
r -t 0.633418000000001 -s 2 -d 1 -p cbr -e 210 -c 0 -i 35 -a 0 -x {2.0 1.1 35 ------- null}
+ -t 0.635000000000001 -s 2 -d 1 -p cbr -e 210 -c 0 -i 36 -a 0 -x {2.0 1.1 36 ------- null}
- -t 0.635000000000001 -s 2 -d 1 -p cbr -e 210 -c 0 -i 36 -a 0 -x {2.0 1.1 36 ------- null}
h -t 0.635000000000001 -s 2 -d 1 -p cbr -e 210 -c 0 -i 36 -a 0 -x {2.0 1.1 -1 ------- null}
r -t 0.637168000000001 -s 2 -d 1 -p cbr -e 210 -c 0 -i 36 -a 0 -x {2.0 1.1 36 ------- null}
+ -t 0.638750000000001 -s 2 -d 1 -p cbr -e 210 -c 0 -i 37 -a 0 -x {2.0 1.1 37 ------- null}
- -t 0.638750000000001 -s 2 -d 1 -p cbr -e 210 -c 0 -i 37 -a 0 -x {2.0 1.1 37 ------- null}
h -t 0.638750000000001 -s 2 -d 1 -p cbr -e 210 -c 0 -i 37 -a 0 -x {2.0 1.1 -1 ------- null}
r -t 0.640918000000001 -s 2 -d 1 -p cbr -e 210 -c 0 -i 37 -a 0 -x {2.0 1.1 37 ------- null}
+ -t 0.642500000000001 -s 2 -d 1 -p cbr -e 210 -c 0 -i 38 -a 0 -x {2.0 1.1 38 ------- null}
- -t 0.642500000000001 -s 2 -d 1 -p cbr -e 210 -c 0 -i 38 -a 0 -x {2.0 1.1 38 ------- null}
h -t 0.642500000000001 -s 2 -d 1 -p cbr -e 210 -c 0 -i 38 -a 0 -x {2.0 1.1 -1 ------- null}
r -t 0.644668000000001 -s 2 -d 1 -p cbr -e 210 -c 0 -i 38 -a 0 -x {2.0 1.1 38 ------- null}
+ -t 0.646250000000001 -s 2 -d 1 -p cbr -e 210 -c 0 -i 39 -a 0 -x {2.0 1.1 39 ------- null}
- -t 0.646250000000001 -s 2 -d 1 -p cbr -e 210 -c 0 -i 39 -a 0 -x {2.0 1.1 39 ------- null}
h -t 0.646250000000001 -s 2 -d 1 -p cbr -e 210 -c 0 -i 39 -a 0 -x {2.0 1.1 -1 ------- null}
r -t 0.648418000000001 -s 2 -d 1 -p cbr -e 210 -c 0 -i 39 -a 0 -x {2.0 1.1 39 ------- null}
+ -t 0.650000000000001 -s 2 -d 1 -p cbr -e 210 -c 0 -i 40 -a 0 -x {2.0 1.1 40 ------- null}
- -t 0.650000000000001 -s 2 -d 1 -p cbr -e 210 -c 0 -i 40 -a 0 -x {2.0 1.1 40 ------- null}
h -t 0.650000000000001 -s 2 -d 1 -p cbr -e 210 -c 0 -i 40 -a 0 -x {2.0 1.1 -1 ------- null}
r -t 0.652168000000001 -s 2 -d 1 -p cbr -e 210 -c 0 -i 40 -a 0 -x {2.0 1.1 40 ------- null}
+ -t 0.653750000000001 -s 2 -d 1 -p cbr -e 210 -c 0 -i 41 -a 0 -x {2.0 1.1 41 ------- null}
- -t 0.653750000000001 -s 2 -d 1 -p cbr -e 210 -c 0 -i 41 -a 0 -x {2.0 1.1 41 ------- null}
h -t 0.653750000000001 -s 2 -d 1 -p cbr -e 210 -c 0 -i 41 -a 0 -x {2.0 1.1 -1 ------- null}
r -t 0.655918000000001 -s 2 -d 1 -p cbr -e 210 -c 0 -i 41 -a 0 -x {2.0 1.1 41 ------- null}
+ -t 0.657500000000001 -s 2 -d 1 -p cbr -e 210 -c 0 -i 42 -a 0 -x {2.0 1.1 42 ------- null}
- -t 0.657500000000001 -s 2 -d 1 -p cbr -e 210 -c 0 -i 42 -a 0 -x {2.0 1.1 42 ------- null}
h -t 0.657500000000001 -s 2 -d 1 -p cbr -e 210 -c 0 -i 42 -a 0 -x {2.0 1.1 -1 ------- null}
r -t 0.659668000000001 -s 2 -d 1 -p cbr -e 210 -c 0 -i 42 -a 0 -x {2.0 1.1 42 ------- null}
+ -t 0.661250000000001 -s 2 -d 1 -p cbr -e 210 -c 0 -i 43 -a 0 -x {2.0 1.1 43 ------- null}
- -t 0.661250000000001 -s 2 -d 1 -p cbr -e 210 -c 0 -i 43 -a 0 -x {2.0 1.1 43 ------- null}
h -t 0.661250000000001 -s 2 -d 1 -p cbr -e 210 -c 0 -i 43 -a 0 -x {2.0 1.1 -1 ------- null}
r -t 0.663418000000001 -s 2 -d 1 -p cbr -e 210 -c 0 -i 43 -a 0 -x {2.0 1.1 43 ------- null}
+ -t 0.665000000000001 -s 2 -d 1 -p cbr -e 210 -c 0 -i 44 -a 0 -x {2.0 1.1 44 ------- null}
- -t 0.665000000000001 -s 2 -d 1 -p cbr -e 210 -c 0 -i 44 -a 0 -x {2.0 1.1 44 ------- null}
h -t 0.665000000000001 -s 2 -d 1 -p cbr -e 210 -c 0 -i 44 -a 0 -x {2.0 1.1 -1 ------- null}
r -t 0.667168000000001 -s 2 -d 1 -p cbr -e 210 -c 0 -i 44 -a 0 -x {2.0 1.1 44 ------- null}
+ -t 0.668750000000001 -s 2 -d 1 -p cbr -e 210 -c 0 -i 45 -a 0 -x {2.0 1.1 45 ------- null}
- -t 0.668750000000001 -s 2 -d 1 -p cbr -e 210 -c 0 -i 45 -a 0 -x {2.0 1.1 45 ------- null}
h -t 0.668750000000001 -s 2 -d 1 -p cbr -e 210 -c 0 -i 45 -a 0 -x {2.0 1.1 -1 ------- null}
r -t 0.670918000000001 -s 2 -d 1 -p cbr -e 210 -c 0 -i 45 -a 0 -x {2.0 1.1 45 ------- null}
+ -t 0.672500000000001 -s 2 -d 1 -p cbr -e 210 -c 0 -i 46 -a 0 -x {2.0 1.1 46 ------- null}
- -t 0.672500000000001 -s 2 -d 1 -p cbr -e 210 -c 0 -i 46 -a 0 -x {2.0 1.1 46 ------- null}
h -t 0.672500000000001 -s 2 -d 1 -p cbr -e 210 -c 0 -i 46 -a 0 -x {2.0 1.1 -1 ------- null}
r -t 0.674668000000001 -s 2 -d 1 -p cbr -e 210 -c 0 -i 46 -a 0 -x {2.0 1.1 46 ------- null}
+ -t 0.676250000000001 -s 2 -d 1 -p cbr -e 210 -c 0 -i 47 -a 0 -x {2.0 1.1 47 ------- null}
- -t 0.676250000000001 -s 2 -d 1 -p cbr -e 210 -c 0 -i 47 -a 0 -x {2.0 1.1 47 ------- null}
h -t 0.676250000000001 -s 2 -d 1 -p cbr -e 210 -c 0 -i 47 -a 0 -x {2.0 1.1 -1 ------- null}
r -t 0.678418000000001 -s 2 -d 1 -p cbr -e 210 -c 0 -i 47 -a 0 -x {2.0 1.1 47 ------- null}
+ -t 0.680000000000001 -s 2 -d 1 -p cbr -e 210 -c 0 -i 48 -a 0 -x {2.0 1.1 48 ------- null}
- -t 0.680000000000001 -s 2 -d 1 -p cbr -e 210 -c 0 -i 48 -a 0 -x {2.0 1.1 48 ------- null}
h -t 0.680000000000001 -s 2 -d 1 -p cbr -e 210 -c 0 -i 48 -a 0 -x {2.0 1.1 -1 ------- null}
r -t 0.682168000000001 -s 2 -d 1 -p cbr -e 210 -c 0 -i 48 -a 0 -x {2.0 1.1 48 ------- null}
+ -t 0.683750000000002 -s 2 -d 1 -p cbr -e 210 -c 0 -i 49 -a 0 -x {2.0 1.1 49 ------- null}
- -t 0.683750000000002 -s 2 -d 1 -p cbr -e 210 -c 0 -i 49 -a 0 -x {2.0 1.1 49 ------- null}
h -t 0.683750000000002 -s 2 -d 1 -p cbr -e 210 -c 0 -i 49 -a 0 -x {2.0 1.1 -1 ------- null}
r -t 0.685918000000001 -s 2 -d 1 -p cbr -e 210 -c 0 -i 49 -a 0 -x {2.0 1.1 49 ------- null}
+ -t 0.687500000000002 -s 2 -d 1 -p cbr -e 210 -c 0 -i 50 -a 0 -x {2.0 1.1 50 ------- null}
- -t 0.687500000000002 -s 2 -d 1 -p cbr -e 210 -c 0 -i 50 -a 0 -x {2.0 1.1 50 ------- null}
h -t 0.687500000000002 -s 2 -d 1 -p cbr -e 210 -c 0 -i 50 -a 0 -x {2.0 1.1 -1 ------- null}
r -t 0.689668000000002 -s 2 -d 1 -p cbr -e 210 -c 0 -i 50 -a 0 -x {2.0 1.1 50 ------- null}
+ -t 0.691250000000002 -s 2 -d 1 -p cbr -e 210 -c 0 -i 51 -a 0 -x {2.0 1.1 51 ------- null}
- -t 0.691250000000002 -s 2 -d 1 -p cbr -e 210 -c 0 -i 51 -a 0 -x {2.0 1.1 51 ------- null}
h -t 0.691250000000002 -s 2 -d 1 -p cbr -e 210 -c 0 -i 51 -a 0 -x {2.0 1.1 -1 ------- null}
r -t 0.693418000000002 -s 2 -d 1 -p cbr -e 210 -c 0 -i 51 -a 0 -x {2.0 1.1 51 ------- null}
+ -t 0.695000000000002 -s 2 -d 1 -p cbr -e 210 -c 0 -i 52 -a 0 -x {2.0 1.1 52 ------- null}
- -t 0.695000000000002 -s 2 -d 1 -p cbr -e 210 -c 0 -i 52 -a 0 -x {2.0 1.1 52 ------- null}
h -t 0.695000000000002 -s 2 -d 1 -p cbr -e 210 -c 0 -i 52 -a 0 -x {2.0 1.1 -1 ------- null}
r -t 0.697168000000002 -s 2 -d 1 -p cbr -e 210 -c 0 -i 52 -a 0 -x {2.0 1.1 52 ------- null}
+ -t 0.698750000000002 -s 2 -d 1 -p cbr -e 210 -c 0 -i 53 -a 0 -x {2.0 1.1 53 ------- null}
- -t 0.698750000000002 -s 2 -d 1 -p cbr -e 210 -c 0 -i 53 -a 0 -x {2.0 1.1 53 ------- null}
h -t 0.698750000000002 -s 2 -d 1 -p cbr -e 210 -c 0 -i 53 -a 0 -x {2.0 1.1 -1 ------- null}
r -t 0.700918000000002 -s 2 -d 1 -p cbr -e 210 -c 0 -i 53 -a 0 -x {2.0 1.1 53 ------- null}
+ -t 0.702500000000002 -s 2 -d 1 -p cbr -e 210 -c 0 -i 54 -a 0 -x {2.0 1.1 54 ------- null}
- -t 0.702500000000002 -s 2 -d 1 -p cbr -e 210 -c 0 -i 54 -a 0 -x {2.0 1.1 54 ------- null}
h -t 0.702500000000002 -s 2 -d 1 -p cbr -e 210 -c 0 -i 54 -a 0 -x {2.0 1.1 -1 ------- null}
r -t 0.704668000000002 -s 2 -d 1 -p cbr -e 210 -c 0 -i 54 -a 0 -x {2.0 1.1 54 ------- null}
+ -t 0.706250000000002 -s 2 -d 1 -p cbr -e 210 -c 0 -i 55 -a 0 -x {2.0 1.1 55 ------- null}
- -t 0.706250000000002 -s 2 -d 1 -p cbr -e 210 -c 0 -i 55 -a 0 -x {2.0 1.1 55 ------- null}
h -t 0.706250000000002 -s 2 -d 1 -p cbr -e 210 -c 0 -i 55 -a 0 -x {2.0 1.1 -1 ------- null}
r -t 0.708418000000002 -s 2 -d 1 -p cbr -e 210 -c 0 -i 55 -a 0 -x {2.0 1.1 55 ------- null}
+ -t 0.710000000000002 -s 2 -d 1 -p cbr -e 210 -c 0 -i 56 -a 0 -x {2.0 1.1 56 ------- null}
- -t 0.710000000000002 -s 2 -d 1 -p cbr -e 210 -c 0 -i 56 -a 0 -x {2.0 1.1 56 ------- null}
h -t 0.710000000000002 -s 2 -d 1 -p cbr -e 210 -c 0 -i 56 -a 0 -x {2.0 1.1 -1 ------- null}
r -t 0.712168000000002 -s 2 -d 1 -p cbr -e 210 -c 0 -i 56 -a 0 -x {2.0 1.1 56 ------- null}
+ -t 0.713750000000002 -s 2 -d 1 -p cbr -e 210 -c 0 -i 57 -a 0 -x {2.0 1.1 57 ------- null}
- -t 0.713750000000002 -s 2 -d 1 -p cbr -e 210 -c 0 -i 57 -a 0 -x {2.0 1.1 57 ------- null}
h -t 0.713750000000002 -s 2 -d 1 -p cbr -e 210 -c 0 -i 57 -a 0 -x {2.0 1.1 -1 ------- null}
r -t 0.715918000000002 -s 2 -d 1 -p cbr -e 210 -c 0 -i 57 -a 0 -x {2.0 1.1 57 ------- null}
+ -t 0.717500000000002 -s 2 -d 1 -p cbr -e 210 -c 0 -i 58 -a 0 -x {2.0 1.1 58 ------- null}
- -t 0.717500000000002 -s 2 -d 1 -p cbr -e 210 -c 0 -i 58 -a 0 -x {2.0 1.1 58 ------- null}
h -t 0.717500000000002 -s 2 -d 1 -p cbr -e 210 -c 0 -i 58 -a 0 -x {2.0 1.1 -1 ------- null}
r -t 0.719668000000002 -s 2 -d 1 -p cbr -e 210 -c 0 -i 58 -a 0 -x {2.0 1.1 58 ------- null}
+ -t 0.721250000000002 -s 2 -d 1 -p cbr -e 210 -c 0 -i 59 -a 0 -x {2.0 1.1 59 ------- null}
- -t 0.721250000000002 -s 2 -d 1 -p cbr -e 210 -c 0 -i 59 -a 0 -x {2.0 1.1 59 ------- null}
h -t 0.721250000000002 -s 2 -d 1 -p cbr -e 210 -c 0 -i 59 -a 0 -x {2.0 1.1 -1 ------- null}
r -t 0.723418000000002 -s 2 -d 1 -p cbr -e 210 -c 0 -i 59 -a 0 -x {2.0 1.1 59 ------- null}
+ -t 0.725000000000002 -s 2 -d 1 -p cbr -e 210 -c 0 -i 60 -a 0 -x {2.0 1.1 60 ------- null}
- -t 0.725000000000002 -s 2 -d 1 -p cbr -e 210 -c 0 -i 60 -a 0 -x {2.0 1.1 60 ------- null}
h -t 0.725000000000002 -s 2 -d 1 -p cbr -e 210 -c 0 -i 60 -a 0 -x {2.0 1.1 -1 ------- null}
r -t 0.727168000000002 -s 2 -d 1 -p cbr -e 210 -c 0 -i 60 -a 0 -x {2.0 1.1 60 ------- null}
+ -t 0.728750000000002 -s 2 -d 1 -p cbr -e 210 -c 0 -i 61 -a 0 -x {2.0 1.1 61 ------- null}
- -t 0.728750000000002 -s 2 -d 1 -p cbr -e 210 -c 0 -i 61 -a 0 -x {2.0 1.1 61 ------- null}
h -t 0.728750000000002 -s 2 -d 1 -p cbr -e 210 -c 0 -i 61 -a 0 -x {2.0 1.1 -1 ------- null}
r -t 0.730918000000002 -s 2 -d 1 -p cbr -e 210 -c 0 -i 61 -a 0 -x {2.0 1.1 61 ------- null}
+ -t 0.732500000000002 -s 2 -d 1 -p cbr -e 210 -c 0 -i 62 -a 0 -x {2.0 1.1 62 ------- null}
- -t 0.732500000000002 -s 2 -d 1 -p cbr -e 210 -c 0 -i 62 -a 0 -x {2.0 1.1 62 ------- null}
h -t 0.732500000000002 -s 2 -d 1 -p cbr -e 210 -c 0 -i 62 -a 0 -x {2.0 1.1 -1 ------- null}
r -t 0.734668000000002 -s 2 -d 1 -p cbr -e 210 -c 0 -i 62 -a 0 -x {2.0 1.1 62 ------- null}
+ -t 0.736250000000002 -s 2 -d 1 -p cbr -e 210 -c 0 -i 63 -a 0 -x {2.0 1.1 63 ------- null}
- -t 0.736250000000002 -s 2 -d 1 -p cbr -e 210 -c 0 -i 63 -a 0 -x {2.0 1.1 63 ------- null}
h -t 0.736250000000002 -s 2 -d 1 -p cbr -e 210 -c 0 -i 63 -a 0 -x {2.0 1.1 -1 ------- null}
r -t 0.738418000000002 -s 2 -d 1 -p cbr -e 210 -c 0 -i 63 -a 0 -x {2.0 1.1 63 ------- null}
+ -t 0.740000000000002 -s 2 -d 1 -p cbr -e 210 -c 0 -i 64 -a 0 -x {2.0 1.1 64 ------- null}
- -t 0.740000000000002 -s 2 -d 1 -p cbr -e 210 -c 0 -i 64 -a 0 -x {2.0 1.1 64 ------- null}
h -t 0.740000000000002 -s 2 -d 1 -p cbr -e 210 -c 0 -i 64 -a 0 -x {2.0 1.1 -1 ------- null}
r -t 0.742168000000002 -s 2 -d 1 -p cbr -e 210 -c 0 -i 64 -a 0 -x {2.0 1.1 64 ------- null}
+ -t 0.743750000000002 -s 2 -d 1 -p cbr -e 210 -c 0 -i 65 -a 0 -x {2.0 1.1 65 ------- null}
- -t 0.743750000000002 -s 2 -d 1 -p cbr -e 210 -c 0 -i 65 -a 0 -x {2.0 1.1 65 ------- null}
h -t 0.743750000000002 -s 2 -d 1 -p cbr -e 210 -c 0 -i 65 -a 0 -x {2.0 1.1 -1 ------- null}
r -t 0.745918000000002 -s 2 -d 1 -p cbr -e 210 -c 0 -i 65 -a 0 -x {2.0 1.1 65 ------- null}
+ -t 0.747500000000002 -s 2 -d 1 -p cbr -e 210 -c 0 -i 66 -a 0 -x {2.0 1.1 66 ------- null}
- -t 0.747500000000002 -s 2 -d 1 -p cbr -e 210 -c 0 -i 66 -a 0 -x {2.0 1.1 66 ------- null}
h -t 0.747500000000002 -s 2 -d 1 -p cbr -e 210 -c 0 -i 66 -a 0 -x {2.0 1.1 -1 ------- null}
r -t 0.749668000000002 -s 2 -d 1 -p cbr -e 210 -c 0 -i 66 -a 0 -x {2.0 1.1 66 ------- null}
+ -t 0.751250000000002 -s 2 -d 1 -p cbr -e 210 -c 0 -i 67 -a 0 -x {2.0 1.1 67 ------- null}
- -t 0.751250000000002 -s 2 -d 1 -p cbr -e 210 -c 0 -i 67 -a 0 -x {2.0 1.1 67 ------- null}
h -t 0.751250000000002 -s 2 -d 1 -p cbr -e 210 -c 0 -i 67 -a 0 -x {2.0 1.1 -1 ------- null}
r -t 0.753418000000002 -s 2 -d 1 -p cbr -e 210 -c 0 -i 67 -a 0 -x {2.0 1.1 67 ------- null}
+ -t 0.755000000000002 -s 2 -d 1 -p cbr -e 210 -c 0 -i 68 -a 0 -x {2.0 1.1 68 ------- null}
- -t 0.755000000000002 -s 2 -d 1 -p cbr -e 210 -c 0 -i 68 -a 0 -x {2.0 1.1 68 ------- null}
h -t 0.755000000000002 -s 2 -d 1 -p cbr -e 210 -c 0 -i 68 -a 0 -x {2.0 1.1 -1 ------- null}
r -t 0.757168000000002 -s 2 -d 1 -p cbr -e 210 -c 0 -i 68 -a 0 -x {2.0 1.1 68 ------- null}
+ -t 0.758750000000002 -s 2 -d 1 -p cbr -e 210 -c 0 -i 69 -a 0 -x {2.0 1.1 69 ------- null}
- -t 0.758750000000002 -s 2 -d 1 -p cbr -e 210 -c 0 -i 69 -a 0 -x {2.0 1.1 69 ------- null}
h -t 0.758750000000002 -s 2 -d 1 -p cbr -e 210 -c 0 -i 69 -a 0 -x {2.0 1.1 -1 ------- null}
r -t 0.760918000000002 -s 2 -d 1 -p cbr -e 210 -c 0 -i 69 -a 0 -x {2.0 1.1 69 ------- null}
+ -t 0.762500000000002 -s 2 -d 1 -p cbr -e 210 -c 0 -i 70 -a 0 -x {2.0 1.1 70 ------- null}
- -t 0.762500000000002 -s 2 -d 1 -p cbr -e 210 -c 0 -i 70 -a 0 -x {2.0 1.1 70 ------- null}
h -t 0.762500000000002 -s 2 -d 1 -p cbr -e 210 -c 0 -i 70 -a 0 -x {2.0 1.1 -1 ------- null}
r -t 0.764668000000002 -s 2 -d 1 -p cbr -e 210 -c 0 -i 70 -a 0 -x {2.0 1.1 70 ------- null}
+ -t 0.766250000000002 -s 2 -d 1 -p cbr -e 210 -c 0 -i 71 -a 0 -x {2.0 1.1 71 ------- null}
- -t 0.766250000000002 -s 2 -d 1 -p cbr -e 210 -c 0 -i 71 -a 0 -x {2.0 1.1 71 ------- null}
h -t 0.766250000000002 -s 2 -d 1 -p cbr -e 210 -c 0 -i 71 -a 0 -x {2.0 1.1 -1 ------- null}
r -t 0.768418000000002 -s 2 -d 1 -p cbr -e 210 -c 0 -i 71 -a 0 -x {2.0 1.1 71 ------- null}
+ -t 0.770000000000002 -s 2 -d 1 -p cbr -e 210 -c 0 -i 72 -a 0 -x {2.0 1.1 72 ------- null}
- -t 0.770000000000002 -s 2 -d 1 -p cbr -e 210 -c 0 -i 72 -a 0 -x {2.0 1.1 72 ------- null}
h -t 0.770000000000002 -s 2 -d 1 -p cbr -e 210 -c 0 -i 72 -a 0 -x {2.0 1.1 -1 ------- null}
r -t 0.772168000000002 -s 2 -d 1 -p cbr -e 210 -c 0 -i 72 -a 0 -x {2.0 1.1 72 ------- null}
+ -t 0.773750000000002 -s 2 -d 1 -p cbr -e 210 -c 0 -i 73 -a 0 -x {2.0 1.1 73 ------- null}
- -t 0.773750000000002 -s 2 -d 1 -p cbr -e 210 -c 0 -i 73 -a 0 -x {2.0 1.1 73 ------- null}
h -t 0.773750000000002 -s 2 -d 1 -p cbr -e 210 -c 0 -i 73 -a 0 -x {2.0 1.1 -1 ------- null}
r -t 0.775918000000002 -s 2 -d 1 -p cbr -e 210 -c 0 -i 73 -a 0 -x {2.0 1.1 73 ------- null}
+ -t 0.777500000000002 -s 2 -d 1 -p cbr -e 210 -c 0 -i 74 -a 0 -x {2.0 1.1 74 ------- null}
- -t 0.777500000000002 -s 2 -d 1 -p cbr -e 210 -c 0 -i 74 -a 0 -x {2.0 1.1 74 ------- null}
h -t 0.777500000000002 -s 2 -d 1 -p cbr -e 210 -c 0 -i 74 -a 0 -x {2.0 1.1 -1 ------- null}
r -t 0.779668000000002 -s 2 -d 1 -p cbr -e 210 -c 0 -i 74 -a 0 -x {2.0 1.1 74 ------- null}
+ -t 0.781250000000002 -s 2 -d 1 -p cbr -e 210 -c 0 -i 75 -a 0 -x {2.0 1.1 75 ------- null}
- -t 0.781250000000002 -s 2 -d 1 -p cbr -e 210 -c 0 -i 75 -a 0 -x {2.0 1.1 75 ------- null}
h -t 0.781250000000002 -s 2 -d 1 -p cbr -e 210 -c 0 -i 75 -a 0 -x {2.0 1.1 -1 ------- null}
r -t 0.783418000000002 -s 2 -d 1 -p cbr -e 210 -c 0 -i 75 -a 0 -x {2.0 1.1 75 ------- null}
+ -t 0.785000000000002 -s 2 -d 1 -p cbr -e 210 -c 0 -i 76 -a 0 -x {2.0 1.1 76 ------- null}
- -t 0.785000000000002 -s 2 -d 1 -p cbr -e 210 -c 0 -i 76 -a 0 -x {2.0 1.1 76 ------- null}
h -t 0.785000000000002 -s 2 -d 1 -p cbr -e 210 -c 0 -i 76 -a 0 -x {2.0 1.1 -1 ------- null}
r -t 0.787168000000002 -s 2 -d 1 -p cbr -e 210 -c 0 -i 76 -a 0 -x {2.0 1.1 76 ------- null}
+ -t 0.788750000000002 -s 2 -d 1 -p cbr -e 210 -c 0 -i 77 -a 0 -x {2.0 1.1 77 ------- null}
- -t 0.788750000000002 -s 2 -d 1 -p cbr -e 210 -c 0 -i 77 -a 0 -x {2.0 1.1 77 ------- null}
h -t 0.788750000000002 -s 2 -d 1 -p cbr -e 210 -c 0 -i 77 -a 0 -x {2.0 1.1 -1 ------- null}
r -t 0.790918000000002 -s 2 -d 1 -p cbr -e 210 -c 0 -i 77 -a 0 -x {2.0 1.1 77 ------- null}
+ -t 0.792500000000002 -s 2 -d 1 -p cbr -e 210 -c 0 -i 78 -a 0 -x {2.0 1.1 78 ------- null}
- -t 0.792500000000002 -s 2 -d 1 -p cbr -e 210 -c 0 -i 78 -a 0 -x {2.0 1.1 78 ------- null}
h -t 0.792500000000002 -s 2 -d 1 -p cbr -e 210 -c 0 -i 78 -a 0 -x {2.0 1.1 -1 ------- null}
r -t 0.794668000000002 -s 2 -d 1 -p cbr -e 210 -c 0 -i 78 -a 0 -x {2.0 1.1 78 ------- null}
+ -t 0.796250000000002 -s 2 -d 1 -p cbr -e 210 -c 0 -i 79 -a 0 -x {2.0 1.1 79 ------- null}
- -t 0.796250000000002 -s 2 -d 1 -p cbr -e 210 -c 0 -i 79 -a 0 -x {2.0 1.1 79 ------- null}
h -t 0.796250000000002 -s 2 -d 1 -p cbr -e 210 -c 0 -i 79 -a 0 -x {2.0 1.1 -1 ------- null}
r -t 0.798418000000002 -s 2 -d 1 -p cbr -e 210 -c 0 -i 79 -a 0 -x {2.0 1.1 79 ------- null}
+ -t 0.800000000000002 -s 2 -d 1 -p cbr -e 210 -c 0 -i 80 -a 0 -x {2.0 1.1 80 ------- null}
- -t 0.800000000000002 -s 2 -d 1 -p cbr -e 210 -c 0 -i 80 -a 0 -x {2.0 1.1 80 ------- null}
h -t 0.800000000000002 -s 2 -d 1 -p cbr -e 210 -c 0 -i 80 -a 0 -x {2.0 1.1 -1 ------- null}
r -t 0.802168000000002 -s 2 -d 1 -p cbr -e 210 -c 0 -i 80 -a 0 -x {2.0 1.1 80 ------- null}
+ -t 0.803750000000003 -s 2 -d 1 -p cbr -e 210 -c 0 -i 81 -a 0 -x {2.0 1.1 81 ------- null}
- -t 0.803750000000003 -s 2 -d 1 -p cbr -e 210 -c 0 -i 81 -a 0 -x {2.0 1.1 81 ------- null}
h -t 0.803750000000003 -s 2 -d 1 -p cbr -e 210 -c 0 -i 81 -a 0 -x {2.0 1.1 -1 ------- null}
r -t 0.805918000000002 -s 2 -d 1 -p cbr -e 210 -c 0 -i 81 -a 0 -x {2.0 1.1 81 ------- null}